# Time           	volumeFlux       	Umin             	Umax             	Umean            	UstDev           	p_rghmin         	p_rghmax         	p_rghmean        	p_rghstDev       	kmin             	kmax             	kmean            	kstDev           	omegamin         	omegamax         	omegamean        	omegastDev       
5.88235 0.0000000000e+00 1.0000000000e+15 -1.0000000000e+15 0.0000000000e+00 0.0000000000e+00 1.0000000000e+15 -1.0000000000e+15 0.0000000000e+00 0.0000000000e+00 1.0000000000e+15 -1.0000000000e+15 0.0000000000e+00 0.0000000000e+00 1.0000000000e+15 -1.0000000000e+15 0.0000000000e+00 0.0000000000e+00 
13.1222 0.0000000000e+00 1.0000000000e+15 -1.0000000000e+15 0.0000000000e+00 0.0000000000e+00 1.0000000000e+15 -1.0000000000e+15 0.0000000000e+00 0.0000000000e+00 1.0000000000e+15 -1.0000000000e+15 0.0000000000e+00 0.0000000000e+00 1.0000000000e+15 -1.0000000000e+15 0.0000000000e+00 0.0000000000e+00 
21.81 0.0000000000e+00 1.0000000000e+15 -1.0000000000e+15 0.0000000000e+00 0.0000000000e+00 1.0000000000e+15 -1.0000000000e+15 0.0000000000e+00 0.0000000000e+00 1.0000000000e+15 -1.0000000000e+15 0.0000000000e+00 0.0000000000e+00 1.0000000000e+15 -1.0000000000e+15 0.0000000000e+00 0.0000000000e+00 
31.5837 0.0000000000e+00 1.0000000000e+15 -1.0000000000e+15 0.0000000000e+00 0.0000000000e+00 1.0000000000e+15 -1.0000000000e+15 0.0000000000e+00 0.0000000000e+00 1.0000000000e+15 -1.0000000000e+15 0.0000000000e+00 0.0000000000e+00 1.0000000000e+15 -1.0000000000e+15 0.0000000000e+00 0.0000000000e+00 
42.9864 0.0000000000e+00 1.0000000000e+15 -1.0000000000e+15 0.0000000000e+00 0.0000000000e+00 1.0000000000e+15 -1.0000000000e+15 0.0000000000e+00 0.0000000000e+00 1.0000000000e+15 -1.0000000000e+15 0.0000000000e+00 0.0000000000e+00 1.0000000000e+15 -1.0000000000e+15 0.0000000000e+00 0.0000000000e+00 
57.2398 0.0000000000e+00 1.0000000000e+15 -1.0000000000e+15 0.0000000000e+00 0.0000000000e+00 1.0000000000e+15 -1.0000000000e+15 0.0000000000e+00 0.0000000000e+00 1.0000000000e+15 -1.0000000000e+15 0.0000000000e+00 0.0000000000e+00 1.0000000000e+15 -1.0000000000e+15 0.0000000000e+00 0.0000000000e+00 
71.4932 0.0000000000e+00 1.0000000000e+15 -1.0000000000e+15 0.0000000000e+00 0.0000000000e+00 1.0000000000e+15 -1.0000000000e+15 0.0000000000e+00 0.0000000000e+00 1.0000000000e+15 -1.0000000000e+15 0.0000000000e+00 0.0000000000e+00 1.0000000000e+15 -1.0000000000e+15 0.0000000000e+00 0.0000000000e+00 
85.7466 0.0000000000e+00 1.0000000000e+15 -1.0000000000e+15 0.0000000000e+00 0.0000000000e+00 1.0000000000e+15 -1.0000000000e+15 0.0000000000e+00 0.0000000000e+00 1.0000000000e+15 -1.0000000000e+15 0.0000000000e+00 0.0000000000e+00 1.0000000000e+15 -1.0000000000e+15 0.0000000000e+00 0.0000000000e+00 
100 0.0000000000e+00 1.0000000000e+15 -1.0000000000e+15 0.0000000000e+00 0.0000000000e+00 1.0000000000e+15 -1.0000000000e+15 0.0000000000e+00 0.0000000000e+00 1.0000000000e+15 -1.0000000000e+15 0.0000000000e+00 0.0000000000e+00 1.0000000000e+15 -1.0000000000e+15 0.0000000000e+00 0.0000000000e+00 
116.667 0.0000000000e+00 1.0000000000e+15 -1.0000000000e+15 0.0000000000e+00 0.0000000000e+00 1.0000000000e+15 -1.0000000000e+15 0.0000000000e+00 0.0000000000e+00 1.0000000000e+15 -1.0000000000e+15 0.0000000000e+00 0.0000000000e+00 1.0000000000e+15 -1.0000000000e+15 0.0000000000e+00 0.0000000000e+00 
137.5 0.0000000000e+00 1.0000000000e+15 -1.0000000000e+15 0.0000000000e+00 0.0000000000e+00 1.0000000000e+15 -1.0000000000e+15 0.0000000000e+00 0.0000000000e+00 1.0000000000e+15 -1.0000000000e+15 0.0000000000e+00 0.0000000000e+00 1.0000000000e+15 -1.0000000000e+15 0.0000000000e+00 0.0000000000e+00 
158.333 0.0000000000e+00 1.0000000000e+15 -1.0000000000e+15 0.0000000000e+00 0.0000000000e+00 1.0000000000e+15 -1.0000000000e+15 0.0000000000e+00 0.0000000000e+00 1.0000000000e+15 -1.0000000000e+15 0.0000000000e+00 0.0000000000e+00 1.0000000000e+15 -1.0000000000e+15 0.0000000000e+00 0.0000000000e+00 
179.167 0.0000000000e+00 1.0000000000e+15 -1.0000000000e+15 0.0000000000e+00 0.0000000000e+00 1.0000000000e+15 -1.0000000000e+15 0.0000000000e+00 0.0000000000e+00 1.0000000000e+15 -1.0000000000e+15 0.0000000000e+00 0.0000000000e+00 1.0000000000e+15 -1.0000000000e+15 0.0000000000e+00 0.0000000000e+00 
200 0.0000000000e+00 1.0000000000e+15 -1.0000000000e+15 0.0000000000e+00 0.0000000000e+00 1.0000000000e+15 -1.0000000000e+15 0.0000000000e+00 0.0000000000e+00 1.0000000000e+15 -1.0000000000e+15 0.0000000000e+00 0.0000000000e+00 1.0000000000e+15 -1.0000000000e+15 0.0000000000e+00 0.0000000000e+00 
225 0.0000000000e+00 1.0000000000e+15 -1.0000000000e+15 0.0000000000e+00 0.0000000000e+00 1.0000000000e+15 -1.0000000000e+15 0.0000000000e+00 0.0000000000e+00 1.0000000000e+15 -1.0000000000e+15 0.0000000000e+00 0.0000000000e+00 1.0000000000e+15 -1.0000000000e+15 0.0000000000e+00 0.0000000000e+00 
250 0.0000000000e+00 1.0000000000e+15 -1.0000000000e+15 0.0000000000e+00 0.0000000000e+00 1.0000000000e+15 -1.0000000000e+15 0.0000000000e+00 0.0000000000e+00 1.0000000000e+15 -1.0000000000e+15 0.0000000000e+00 0.0000000000e+00 1.0000000000e+15 -1.0000000000e+15 0.0000000000e+00 0.0000000000e+00 
275 0.0000000000e+00 1.0000000000e+15 -1.0000000000e+15 0.0000000000e+00 0.0000000000e+00 1.0000000000e+15 -1.0000000000e+15 0.0000000000e+00 0.0000000000e+00 1.0000000000e+15 -1.0000000000e+15 0.0000000000e+00 0.0000000000e+00 1.0000000000e+15 -1.0000000000e+15 0.0000000000e+00 0.0000000000e+00 
300 0.0000000000e+00 1.0000000000e+15 -1.0000000000e+15 0.0000000000e+00 0.0000000000e+00 1.0000000000e+15 -1.0000000000e+15 0.0000000000e+00 0.0000000000e+00 1.0000000000e+15 -1.0000000000e+15 0.0000000000e+00 0.0000000000e+00 1.0000000000e+15 -1.0000000000e+15 0.0000000000e+00 0.0000000000e+00 
325 0.0000000000e+00 1.0000000000e+15 -1.0000000000e+15 0.0000000000e+00 0.0000000000e+00 1.0000000000e+15 -1.0000000000e+15 0.0000000000e+00 0.0000000000e+00 1.0000000000e+15 -1.0000000000e+15 0.0000000000e+00 0.0000000000e+00 1.0000000000e+15 -1.0000000000e+15 0.0000000000e+00 0.0000000000e+00 
350 0.0000000000e+00 1.0000000000e+15 -1.0000000000e+15 0.0000000000e+00 0.0000000000e+00 1.0000000000e+15 -1.0000000000e+15 0.0000000000e+00 0.0000000000e+00 1.0000000000e+15 -1.0000000000e+15 0.0000000000e+00 0.0000000000e+00 1.0000000000e+15 -1.0000000000e+15 0.0000000000e+00 0.0000000000e+00 
375 0.0000000000e+00 1.0000000000e+15 -1.0000000000e+15 0.0000000000e+00 0.0000000000e+00 1.0000000000e+15 -1.0000000000e+15 0.0000000000e+00 0.0000000000e+00 1.0000000000e+15 -1.0000000000e+15 0.0000000000e+00 0.0000000000e+00 1.0000000000e+15 -1.0000000000e+15 0.0000000000e+00 0.0000000000e+00 
400 0.0000000000e+00 1.0000000000e+15 -1.0000000000e+15 0.0000000000e+00 0.0000000000e+00 1.0000000000e+15 -1.0000000000e+15 0.0000000000e+00 0.0000000000e+00 1.0000000000e+15 -1.0000000000e+15 0.0000000000e+00 0.0000000000e+00 1.0000000000e+15 -1.0000000000e+15 0.0000000000e+00 0.0000000000e+00 
425 0.0000000000e+00 1.0000000000e+15 -1.0000000000e+15 0.0000000000e+00 0.0000000000e+00 1.0000000000e+15 -1.0000000000e+15 0.0000000000e+00 0.0000000000e+00 1.0000000000e+15 -1.0000000000e+15 0.0000000000e+00 0.0000000000e+00 1.0000000000e+15 -1.0000000000e+15 0.0000000000e+00 0.0000000000e+00 
450 0.0000000000e+00 1.0000000000e+15 -1.0000000000e+15 0.0000000000e+00 0.0000000000e+00 1.0000000000e+15 -1.0000000000e+15 0.0000000000e+00 0.0000000000e+00 1.0000000000e+15 -1.0000000000e+15 0.0000000000e+00 0.0000000000e+00 1.0000000000e+15 -1.0000000000e+15 0.0000000000e+00 0.0000000000e+00 
475 0.0000000000e+00 1.0000000000e+15 -1.0000000000e+15 0.0000000000e+00 0.0000000000e+00 1.0000000000e+15 -1.0000000000e+15 0.0000000000e+00 0.0000000000e+00 1.0000000000e+15 -1.0000000000e+15 0.0000000000e+00 0.0000000000e+00 1.0000000000e+15 -1.0000000000e+15 0.0000000000e+00 0.0000000000e+00 
500 0.0000000000e+00 1.0000000000e+15 -1.0000000000e+15 0.0000000000e+00 0.0000000000e+00 1.0000000000e+15 -1.0000000000e+15 0.0000000000e+00 0.0000000000e+00 1.0000000000e+15 -1.0000000000e+15 0.0000000000e+00 0.0000000000e+00 1.0000000000e+15 -1.0000000000e+15 0.0000000000e+00 0.0000000000e+00 
525 0.0000000000e+00 1.0000000000e+15 -1.0000000000e+15 0.0000000000e+00 0.0000000000e+00 1.0000000000e+15 -1.0000000000e+15 0.0000000000e+00 0.0000000000e+00 1.0000000000e+15 -1.0000000000e+15 0.0000000000e+00 0.0000000000e+00 1.0000000000e+15 -1.0000000000e+15 0.0000000000e+00 0.0000000000e+00 
550 0.0000000000e+00 1.0000000000e+15 -1.0000000000e+15 0.0000000000e+00 0.0000000000e+00 1.0000000000e+15 -1.0000000000e+15 0.0000000000e+00 0.0000000000e+00 1.0000000000e+15 -1.0000000000e+15 0.0000000000e+00 0.0000000000e+00 1.0000000000e+15 -1.0000000000e+15 0.0000000000e+00 0.0000000000e+00 
575 0.0000000000e+00 1.0000000000e+15 -1.0000000000e+15 0.0000000000e+00 0.0000000000e+00 1.0000000000e+15 -1.0000000000e+15 0.0000000000e+00 0.0000000000e+00 1.0000000000e+15 -1.0000000000e+15 0.0000000000e+00 0.0000000000e+00 1.0000000000e+15 -1.0000000000e+15 0.0000000000e+00 0.0000000000e+00 
600 0.0000000000e+00 1.0000000000e+15 -1.0000000000e+15 0.0000000000e+00 0.0000000000e+00 1.0000000000e+15 -1.0000000000e+15 0.0000000000e+00 0.0000000000e+00 1.0000000000e+15 -1.0000000000e+15 0.0000000000e+00 0.0000000000e+00 1.0000000000e+15 -1.0000000000e+15 0.0000000000e+00 0.0000000000e+00 
625 0.0000000000e+00 1.0000000000e+15 -1.0000000000e+15 0.0000000000e+00 0.0000000000e+00 1.0000000000e+15 -1.0000000000e+15 0.0000000000e+00 0.0000000000e+00 1.0000000000e+15 -1.0000000000e+15 0.0000000000e+00 0.0000000000e+00 1.0000000000e+15 -1.0000000000e+15 0.0000000000e+00 0.0000000000e+00 
650 0.0000000000e+00 1.0000000000e+15 -1.0000000000e+15 0.0000000000e+00 0.0000000000e+00 1.0000000000e+15 -1.0000000000e+15 0.0000000000e+00 0.0000000000e+00 1.0000000000e+15 -1.0000000000e+15 0.0000000000e+00 0.0000000000e+00 1.0000000000e+15 -1.0000000000e+15 0.0000000000e+00 0.0000000000e+00 
675 0.0000000000e+00 1.0000000000e+15 -1.0000000000e+15 0.0000000000e+00 0.0000000000e+00 1.0000000000e+15 -1.0000000000e+15 0.0000000000e+00 0.0000000000e+00 1.0000000000e+15 -1.0000000000e+15 0.0000000000e+00 0.0000000000e+00 1.0000000000e+15 -1.0000000000e+15 0.0000000000e+00 0.0000000000e+00 
700 0.0000000000e+00 1.0000000000e+15 -1.0000000000e+15 0.0000000000e+00 0.0000000000e+00 1.0000000000e+15 -1.0000000000e+15 0.0000000000e+00 0.0000000000e+00 1.0000000000e+15 -1.0000000000e+15 0.0000000000e+00 0.0000000000e+00 1.0000000000e+15 -1.0000000000e+15 0.0000000000e+00 0.0000000000e+00 
725 0.0000000000e+00 1.0000000000e+15 -1.0000000000e+15 0.0000000000e+00 0.0000000000e+00 1.0000000000e+15 -1.0000000000e+15 0.0000000000e+00 0.0000000000e+00 1.0000000000e+15 -1.0000000000e+15 0.0000000000e+00 0.0000000000e+00 1.0000000000e+15 -1.0000000000e+15 0.0000000000e+00 0.0000000000e+00 
750 0.0000000000e+00 1.0000000000e+15 -1.0000000000e+15 0.0000000000e+00 0.0000000000e+00 1.0000000000e+15 -1.0000000000e+15 0.0000000000e+00 0.0000000000e+00 1.0000000000e+15 -1.0000000000e+15 0.0000000000e+00 0.0000000000e+00 1.0000000000e+15 -1.0000000000e+15 0.0000000000e+00 0.0000000000e+00 
775 0.0000000000e+00 1.0000000000e+15 -1.0000000000e+15 0.0000000000e+00 0.0000000000e+00 1.0000000000e+15 -1.0000000000e+15 0.0000000000e+00 0.0000000000e+00 1.0000000000e+15 -1.0000000000e+15 0.0000000000e+00 0.0000000000e+00 1.0000000000e+15 -1.0000000000e+15 0.0000000000e+00 0.0000000000e+00 
800 0.0000000000e+00 1.0000000000e+15 -1.0000000000e+15 0.0000000000e+00 0.0000000000e+00 1.0000000000e+15 -1.0000000000e+15 0.0000000000e+00 0.0000000000e+00 1.0000000000e+15 -1.0000000000e+15 0.0000000000e+00 0.0000000000e+00 1.0000000000e+15 -1.0000000000e+15 0.0000000000e+00 0.0000000000e+00 
825 0.0000000000e+00 1.0000000000e+15 -1.0000000000e+15 0.0000000000e+00 0.0000000000e+00 1.0000000000e+15 -1.0000000000e+15 0.0000000000e+00 0.0000000000e+00 1.0000000000e+15 -1.0000000000e+15 0.0000000000e+00 0.0000000000e+00 1.0000000000e+15 -1.0000000000e+15 0.0000000000e+00 0.0000000000e+00 
850 0.0000000000e+00 1.0000000000e+15 -1.0000000000e+15 0.0000000000e+00 0.0000000000e+00 1.0000000000e+15 -1.0000000000e+15 0.0000000000e+00 0.0000000000e+00 1.0000000000e+15 -1.0000000000e+15 0.0000000000e+00 0.0000000000e+00 1.0000000000e+15 -1.0000000000e+15 0.0000000000e+00 0.0000000000e+00 
875 0.0000000000e+00 1.0000000000e+15 -1.0000000000e+15 0.0000000000e+00 0.0000000000e+00 1.0000000000e+15 -1.0000000000e+15 0.0000000000e+00 0.0000000000e+00 1.0000000000e+15 -1.0000000000e+15 0.0000000000e+00 0.0000000000e+00 1.0000000000e+15 -1.0000000000e+15 0.0000000000e+00 0.0000000000e+00 
900 0.0000000000e+00 1.0000000000e+15 -1.0000000000e+15 0.0000000000e+00 0.0000000000e+00 1.0000000000e+15 -1.0000000000e+15 0.0000000000e+00 0.0000000000e+00 1.0000000000e+15 -1.0000000000e+15 0.0000000000e+00 0.0000000000e+00 1.0000000000e+15 -1.0000000000e+15 0.0000000000e+00 0.0000000000e+00 
925 0.0000000000e+00 1.0000000000e+15 -1.0000000000e+15 0.0000000000e+00 0.0000000000e+00 1.0000000000e+15 -1.0000000000e+15 0.0000000000e+00 0.0000000000e+00 1.0000000000e+15 -1.0000000000e+15 0.0000000000e+00 0.0000000000e+00 1.0000000000e+15 -1.0000000000e+15 0.0000000000e+00 0.0000000000e+00 
950 0.0000000000e+00 1.0000000000e+15 -1.0000000000e+15 0.0000000000e+00 0.0000000000e+00 1.0000000000e+15 -1.0000000000e+15 0.0000000000e+00 0.0000000000e+00 1.0000000000e+15 -1.0000000000e+15 0.0000000000e+00 0.0000000000e+00 1.0000000000e+15 -1.0000000000e+15 0.0000000000e+00 0.0000000000e+00 
975 0.0000000000e+00 1.0000000000e+15 -1.0000000000e+15 0.0000000000e+00 0.0000000000e+00 1.0000000000e+15 -1.0000000000e+15 0.0000000000e+00 0.0000000000e+00 1.0000000000e+15 -1.0000000000e+15 0.0000000000e+00 0.0000000000e+00 1.0000000000e+15 -1.0000000000e+15 0.0000000000e+00 0.0000000000e+00 
1000 0.0000000000e+00 1.0000000000e+15 -1.0000000000e+15 0.0000000000e+00 0.0000000000e+00 1.0000000000e+15 -1.0000000000e+15 0.0000000000e+00 0.0000000000e+00 1.0000000000e+15 -1.0000000000e+15 0.0000000000e+00 0.0000000000e+00 1.0000000000e+15 -1.0000000000e+15 0.0000000000e+00 0.0000000000e+00 
1025 0.0000000000e+00 1.0000000000e+15 -1.0000000000e+15 0.0000000000e+00 0.0000000000e+00 1.0000000000e+15 -1.0000000000e+15 0.0000000000e+00 0.0000000000e+00 1.0000000000e+15 -1.0000000000e+15 0.0000000000e+00 0.0000000000e+00 1.0000000000e+15 -1.0000000000e+15 0.0000000000e+00 0.0000000000e+00 
1050 0.0000000000e+00 1.0000000000e+15 -1.0000000000e+15 0.0000000000e+00 0.0000000000e+00 1.0000000000e+15 -1.0000000000e+15 0.0000000000e+00 0.0000000000e+00 1.0000000000e+15 -1.0000000000e+15 0.0000000000e+00 0.0000000000e+00 1.0000000000e+15 -1.0000000000e+15 0.0000000000e+00 0.0000000000e+00 
1075 0.0000000000e+00 1.0000000000e+15 -1.0000000000e+15 0.0000000000e+00 0.0000000000e+00 1.0000000000e+15 -1.0000000000e+15 0.0000000000e+00 0.0000000000e+00 1.0000000000e+15 -1.0000000000e+15 0.0000000000e+00 0.0000000000e+00 1.0000000000e+15 -1.0000000000e+15 0.0000000000e+00 0.0000000000e+00 
1100 0.0000000000e+00 1.0000000000e+15 -1.0000000000e+15 0.0000000000e+00 0.0000000000e+00 1.0000000000e+15 -1.0000000000e+15 0.0000000000e+00 0.0000000000e+00 1.0000000000e+15 -1.0000000000e+15 0.0000000000e+00 0.0000000000e+00 1.0000000000e+15 -1.0000000000e+15 0.0000000000e+00 0.0000000000e+00 
1125 0.0000000000e+00 1.0000000000e+15 -1.0000000000e+15 0.0000000000e+00 0.0000000000e+00 1.0000000000e+15 -1.0000000000e+15 0.0000000000e+00 0.0000000000e+00 1.0000000000e+15 -1.0000000000e+15 0.0000000000e+00 0.0000000000e+00 1.0000000000e+15 -1.0000000000e+15 0.0000000000e+00 0.0000000000e+00 
1150 0.0000000000e+00 1.0000000000e+15 -1.0000000000e+15 0.0000000000e+00 0.0000000000e+00 1.0000000000e+15 -1.0000000000e+15 0.0000000000e+00 0.0000000000e+00 1.0000000000e+15 -1.0000000000e+15 0.0000000000e+00 0.0000000000e+00 1.0000000000e+15 -1.0000000000e+15 0.0000000000e+00 0.0000000000e+00 
1175 0.0000000000e+00 1.0000000000e+15 -1.0000000000e+15 0.0000000000e+00 0.0000000000e+00 1.0000000000e+15 -1.0000000000e+15 0.0000000000e+00 0.0000000000e+00 1.0000000000e+15 -1.0000000000e+15 0.0000000000e+00 0.0000000000e+00 1.0000000000e+15 -1.0000000000e+15 0.0000000000e+00 0.0000000000e+00 
1200 0.0000000000e+00 1.0000000000e+15 -1.0000000000e+15 0.0000000000e+00 0.0000000000e+00 1.0000000000e+15 -1.0000000000e+15 0.0000000000e+00 0.0000000000e+00 1.0000000000e+15 -1.0000000000e+15 0.0000000000e+00 0.0000000000e+00 1.0000000000e+15 -1.0000000000e+15 0.0000000000e+00 0.0000000000e+00 
1225 0.0000000000e+00 1.0000000000e+15 -1.0000000000e+15 0.0000000000e+00 0.0000000000e+00 1.0000000000e+15 -1.0000000000e+15 0.0000000000e+00 0.0000000000e+00 1.0000000000e+15 -1.0000000000e+15 0.0000000000e+00 0.0000000000e+00 1.0000000000e+15 -1.0000000000e+15 0.0000000000e+00 0.0000000000e+00 
1243.75 0.0000000000e+00 1.0000000000e+15 -1.0000000000e+15 0.0000000000e+00 0.0000000000e+00 1.0000000000e+15 -1.0000000000e+15 0.0000000000e+00 0.0000000000e+00 1.0000000000e+15 -1.0000000000e+15 0.0000000000e+00 0.0000000000e+00 1.0000000000e+15 -1.0000000000e+15 0.0000000000e+00 0.0000000000e+00 
1262.5 0.0000000000e+00 1.0000000000e+15 -1.0000000000e+15 0.0000000000e+00 0.0000000000e+00 1.0000000000e+15 -1.0000000000e+15 0.0000000000e+00 0.0000000000e+00 1.0000000000e+15 -1.0000000000e+15 0.0000000000e+00 0.0000000000e+00 1.0000000000e+15 -1.0000000000e+15 0.0000000000e+00 0.0000000000e+00 
1281.25 0.0000000000e+00 1.0000000000e+15 -1.0000000000e+15 0.0000000000e+00 0.0000000000e+00 1.0000000000e+15 -1.0000000000e+15 0.0000000000e+00 0.0000000000e+00 1.0000000000e+15 -1.0000000000e+15 0.0000000000e+00 0.0000000000e+00 1.0000000000e+15 -1.0000000000e+15 0.0000000000e+00 0.0000000000e+00 
1300 0.0000000000e+00 1.0000000000e+15 -1.0000000000e+15 0.0000000000e+00 0.0000000000e+00 1.0000000000e+15 -1.0000000000e+15 0.0000000000e+00 0.0000000000e+00 1.0000000000e+15 -1.0000000000e+15 0.0000000000e+00 0.0000000000e+00 1.0000000000e+15 -1.0000000000e+15 0.0000000000e+00 0.0000000000e+00 
1320 0.0000000000e+00 1.0000000000e+15 -1.0000000000e+15 0.0000000000e+00 0.0000000000e+00 1.0000000000e+15 -1.0000000000e+15 0.0000000000e+00 0.0000000000e+00 1.0000000000e+15 -1.0000000000e+15 0.0000000000e+00 0.0000000000e+00 1.0000000000e+15 -1.0000000000e+15 0.0000000000e+00 0.0000000000e+00 
1340 0.0000000000e+00 1.0000000000e+15 -1.0000000000e+15 0.0000000000e+00 0.0000000000e+00 1.0000000000e+15 -1.0000000000e+15 0.0000000000e+00 0.0000000000e+00 1.0000000000e+15 -1.0000000000e+15 0.0000000000e+00 0.0000000000e+00 1.0000000000e+15 -1.0000000000e+15 0.0000000000e+00 0.0000000000e+00 
1360 0.0000000000e+00 1.0000000000e+15 -1.0000000000e+15 0.0000000000e+00 0.0000000000e+00 1.0000000000e+15 -1.0000000000e+15 0.0000000000e+00 0.0000000000e+00 1.0000000000e+15 -1.0000000000e+15 0.0000000000e+00 0.0000000000e+00 1.0000000000e+15 -1.0000000000e+15 0.0000000000e+00 0.0000000000e+00 
1380 0.0000000000e+00 1.0000000000e+15 -1.0000000000e+15 0.0000000000e+00 0.0000000000e+00 1.0000000000e+15 -1.0000000000e+15 0.0000000000e+00 0.0000000000e+00 1.0000000000e+15 -1.0000000000e+15 0.0000000000e+00 0.0000000000e+00 1.0000000000e+15 -1.0000000000e+15 0.0000000000e+00 0.0000000000e+00 
1400 0.0000000000e+00 1.0000000000e+15 -1.0000000000e+15 0.0000000000e+00 0.0000000000e+00 1.0000000000e+15 -1.0000000000e+15 0.0000000000e+00 0.0000000000e+00 1.0000000000e+15 -1.0000000000e+15 0.0000000000e+00 0.0000000000e+00 1.0000000000e+15 -1.0000000000e+15 0.0000000000e+00 0.0000000000e+00 
1425 0.0000000000e+00 1.0000000000e+15 -1.0000000000e+15 0.0000000000e+00 0.0000000000e+00 1.0000000000e+15 -1.0000000000e+15 0.0000000000e+00 0.0000000000e+00 1.0000000000e+15 -1.0000000000e+15 0.0000000000e+00 0.0000000000e+00 1.0000000000e+15 -1.0000000000e+15 0.0000000000e+00 0.0000000000e+00 
1450 0.0000000000e+00 1.0000000000e+15 -1.0000000000e+15 0.0000000000e+00 0.0000000000e+00 1.0000000000e+15 -1.0000000000e+15 0.0000000000e+00 0.0000000000e+00 1.0000000000e+15 -1.0000000000e+15 0.0000000000e+00 0.0000000000e+00 1.0000000000e+15 -1.0000000000e+15 0.0000000000e+00 0.0000000000e+00 
1475 0.0000000000e+00 1.0000000000e+15 -1.0000000000e+15 0.0000000000e+00 0.0000000000e+00 1.0000000000e+15 -1.0000000000e+15 0.0000000000e+00 0.0000000000e+00 1.0000000000e+15 -1.0000000000e+15 0.0000000000e+00 0.0000000000e+00 1.0000000000e+15 -1.0000000000e+15 0.0000000000e+00 0.0000000000e+00 
1500 0.0000000000e+00 1.0000000000e+15 -1.0000000000e+15 0.0000000000e+00 0.0000000000e+00 1.0000000000e+15 -1.0000000000e+15 0.0000000000e+00 0.0000000000e+00 1.0000000000e+15 -1.0000000000e+15 0.0000000000e+00 0.0000000000e+00 1.0000000000e+15 -1.0000000000e+15 0.0000000000e+00 0.0000000000e+00 
1525 0.0000000000e+00 1.0000000000e+15 -1.0000000000e+15 0.0000000000e+00 0.0000000000e+00 1.0000000000e+15 -1.0000000000e+15 0.0000000000e+00 0.0000000000e+00 1.0000000000e+15 -1.0000000000e+15 0.0000000000e+00 0.0000000000e+00 1.0000000000e+15 -1.0000000000e+15 0.0000000000e+00 0.0000000000e+00 
1550 0.0000000000e+00 1.0000000000e+15 -1.0000000000e+15 0.0000000000e+00 0.0000000000e+00 1.0000000000e+15 -1.0000000000e+15 0.0000000000e+00 0.0000000000e+00 1.0000000000e+15 -1.0000000000e+15 0.0000000000e+00 0.0000000000e+00 1.0000000000e+15 -1.0000000000e+15 0.0000000000e+00 0.0000000000e+00 
1575 0.0000000000e+00 1.0000000000e+15 -1.0000000000e+15 0.0000000000e+00 0.0000000000e+00 1.0000000000e+15 -1.0000000000e+15 0.0000000000e+00 0.0000000000e+00 1.0000000000e+15 -1.0000000000e+15 0.0000000000e+00 0.0000000000e+00 1.0000000000e+15 -1.0000000000e+15 0.0000000000e+00 0.0000000000e+00 
1600 0.0000000000e+00 1.0000000000e+15 -1.0000000000e+15 0.0000000000e+00 0.0000000000e+00 1.0000000000e+15 -1.0000000000e+15 0.0000000000e+00 0.0000000000e+00 1.0000000000e+15 -1.0000000000e+15 0.0000000000e+00 0.0000000000e+00 1.0000000000e+15 -1.0000000000e+15 0.0000000000e+00 0.0000000000e+00 
1625 0.0000000000e+00 1.0000000000e+15 -1.0000000000e+15 0.0000000000e+00 0.0000000000e+00 1.0000000000e+15 -1.0000000000e+15 0.0000000000e+00 0.0000000000e+00 1.0000000000e+15 -1.0000000000e+15 0.0000000000e+00 0.0000000000e+00 1.0000000000e+15 -1.0000000000e+15 0.0000000000e+00 0.0000000000e+00 
1650 0.0000000000e+00 1.0000000000e+15 -1.0000000000e+15 0.0000000000e+00 0.0000000000e+00 1.0000000000e+15 -1.0000000000e+15 0.0000000000e+00 0.0000000000e+00 1.0000000000e+15 -1.0000000000e+15 0.0000000000e+00 0.0000000000e+00 1.0000000000e+15 -1.0000000000e+15 0.0000000000e+00 0.0000000000e+00 
1675 0.0000000000e+00 1.0000000000e+15 -1.0000000000e+15 0.0000000000e+00 0.0000000000e+00 1.0000000000e+15 -1.0000000000e+15 0.0000000000e+00 0.0000000000e+00 1.0000000000e+15 -1.0000000000e+15 0.0000000000e+00 0.0000000000e+00 1.0000000000e+15 -1.0000000000e+15 0.0000000000e+00 0.0000000000e+00 
1700 0.0000000000e+00 1.0000000000e+15 -1.0000000000e+15 0.0000000000e+00 0.0000000000e+00 1.0000000000e+15 -1.0000000000e+15 0.0000000000e+00 0.0000000000e+00 1.0000000000e+15 -1.0000000000e+15 0.0000000000e+00 0.0000000000e+00 1.0000000000e+15 -1.0000000000e+15 0.0000000000e+00 0.0000000000e+00 
1725 0.0000000000e+00 1.0000000000e+15 -1.0000000000e+15 0.0000000000e+00 0.0000000000e+00 1.0000000000e+15 -1.0000000000e+15 0.0000000000e+00 0.0000000000e+00 1.0000000000e+15 -1.0000000000e+15 0.0000000000e+00 0.0000000000e+00 1.0000000000e+15 -1.0000000000e+15 0.0000000000e+00 0.0000000000e+00 
1750 0.0000000000e+00 1.0000000000e+15 -1.0000000000e+15 0.0000000000e+00 0.0000000000e+00 1.0000000000e+15 -1.0000000000e+15 0.0000000000e+00 0.0000000000e+00 1.0000000000e+15 -1.0000000000e+15 0.0000000000e+00 0.0000000000e+00 1.0000000000e+15 -1.0000000000e+15 0.0000000000e+00 0.0000000000e+00 
1775 0.0000000000e+00 1.0000000000e+15 -1.0000000000e+15 0.0000000000e+00 0.0000000000e+00 1.0000000000e+15 -1.0000000000e+15 0.0000000000e+00 0.0000000000e+00 1.0000000000e+15 -1.0000000000e+15 0.0000000000e+00 0.0000000000e+00 1.0000000000e+15 -1.0000000000e+15 0.0000000000e+00 0.0000000000e+00 
1800 0.0000000000e+00 1.0000000000e+15 -1.0000000000e+15 0.0000000000e+00 0.0000000000e+00 1.0000000000e+15 -1.0000000000e+15 0.0000000000e+00 0.0000000000e+00 1.0000000000e+15 -1.0000000000e+15 0.0000000000e+00 0.0000000000e+00 1.0000000000e+15 -1.0000000000e+15 0.0000000000e+00 0.0000000000e+00 
1825 0.0000000000e+00 1.0000000000e+15 -1.0000000000e+15 0.0000000000e+00 0.0000000000e+00 1.0000000000e+15 -1.0000000000e+15 0.0000000000e+00 0.0000000000e+00 1.0000000000e+15 -1.0000000000e+15 0.0000000000e+00 0.0000000000e+00 1.0000000000e+15 -1.0000000000e+15 0.0000000000e+00 0.0000000000e+00 
1850 0.0000000000e+00 1.0000000000e+15 -1.0000000000e+15 0.0000000000e+00 0.0000000000e+00 1.0000000000e+15 -1.0000000000e+15 0.0000000000e+00 0.0000000000e+00 1.0000000000e+15 -1.0000000000e+15 0.0000000000e+00 0.0000000000e+00 1.0000000000e+15 -1.0000000000e+15 0.0000000000e+00 0.0000000000e+00 
1875 0.0000000000e+00 1.0000000000e+15 -1.0000000000e+15 0.0000000000e+00 0.0000000000e+00 1.0000000000e+15 -1.0000000000e+15 0.0000000000e+00 0.0000000000e+00 1.0000000000e+15 -1.0000000000e+15 0.0000000000e+00 0.0000000000e+00 1.0000000000e+15 -1.0000000000e+15 0.0000000000e+00 0.0000000000e+00 
1900 0.0000000000e+00 1.0000000000e+15 -1.0000000000e+15 0.0000000000e+00 0.0000000000e+00 1.0000000000e+15 -1.0000000000e+15 0.0000000000e+00 0.0000000000e+00 1.0000000000e+15 -1.0000000000e+15 0.0000000000e+00 0.0000000000e+00 1.0000000000e+15 -1.0000000000e+15 0.0000000000e+00 0.0000000000e+00 
1925 0.0000000000e+00 1.0000000000e+15 -1.0000000000e+15 0.0000000000e+00 0.0000000000e+00 1.0000000000e+15 -1.0000000000e+15 0.0000000000e+00 0.0000000000e+00 1.0000000000e+15 -1.0000000000e+15 0.0000000000e+00 0.0000000000e+00 1.0000000000e+15 -1.0000000000e+15 0.0000000000e+00 0.0000000000e+00 
1950 0.0000000000e+00 1.0000000000e+15 -1.0000000000e+15 0.0000000000e+00 0.0000000000e+00 1.0000000000e+15 -1.0000000000e+15 0.0000000000e+00 0.0000000000e+00 1.0000000000e+15 -1.0000000000e+15 0.0000000000e+00 0.0000000000e+00 1.0000000000e+15 -1.0000000000e+15 0.0000000000e+00 0.0000000000e+00 
1975 0.0000000000e+00 1.0000000000e+15 -1.0000000000e+15 0.0000000000e+00 0.0000000000e+00 1.0000000000e+15 -1.0000000000e+15 0.0000000000e+00 0.0000000000e+00 1.0000000000e+15 -1.0000000000e+15 0.0000000000e+00 0.0000000000e+00 1.0000000000e+15 -1.0000000000e+15 0.0000000000e+00 0.0000000000e+00 
2000 0.0000000000e+00 1.0000000000e+15 -1.0000000000e+15 0.0000000000e+00 0.0000000000e+00 1.0000000000e+15 -1.0000000000e+15 0.0000000000e+00 0.0000000000e+00 1.0000000000e+15 -1.0000000000e+15 0.0000000000e+00 0.0000000000e+00 1.0000000000e+15 -1.0000000000e+15 0.0000000000e+00 0.0000000000e+00 
2025 0.0000000000e+00 1.0000000000e+15 -1.0000000000e+15 0.0000000000e+00 0.0000000000e+00 1.0000000000e+15 -1.0000000000e+15 0.0000000000e+00 0.0000000000e+00 1.0000000000e+15 -1.0000000000e+15 0.0000000000e+00 0.0000000000e+00 1.0000000000e+15 -1.0000000000e+15 0.0000000000e+00 0.0000000000e+00 
2050 0.0000000000e+00 1.0000000000e+15 -1.0000000000e+15 0.0000000000e+00 0.0000000000e+00 1.0000000000e+15 -1.0000000000e+15 0.0000000000e+00 0.0000000000e+00 1.0000000000e+15 -1.0000000000e+15 0.0000000000e+00 0.0000000000e+00 1.0000000000e+15 -1.0000000000e+15 0.0000000000e+00 0.0000000000e+00 
2075 0.0000000000e+00 1.0000000000e+15 -1.0000000000e+15 0.0000000000e+00 0.0000000000e+00 1.0000000000e+15 -1.0000000000e+15 0.0000000000e+00 0.0000000000e+00 1.0000000000e+15 -1.0000000000e+15 0.0000000000e+00 0.0000000000e+00 1.0000000000e+15 -1.0000000000e+15 0.0000000000e+00 0.0000000000e+00 
2100 0.0000000000e+00 1.0000000000e+15 -1.0000000000e+15 0.0000000000e+00 0.0000000000e+00 1.0000000000e+15 -1.0000000000e+15 0.0000000000e+00 0.0000000000e+00 1.0000000000e+15 -1.0000000000e+15 0.0000000000e+00 0.0000000000e+00 1.0000000000e+15 -1.0000000000e+15 0.0000000000e+00 0.0000000000e+00 
2125 0.0000000000e+00 1.0000000000e+15 -1.0000000000e+15 0.0000000000e+00 0.0000000000e+00 1.0000000000e+15 -1.0000000000e+15 0.0000000000e+00 0.0000000000e+00 1.0000000000e+15 -1.0000000000e+15 0.0000000000e+00 0.0000000000e+00 1.0000000000e+15 -1.0000000000e+15 0.0000000000e+00 0.0000000000e+00 
2150 0.0000000000e+00 1.0000000000e+15 -1.0000000000e+15 0.0000000000e+00 0.0000000000e+00 1.0000000000e+15 -1.0000000000e+15 0.0000000000e+00 0.0000000000e+00 1.0000000000e+15 -1.0000000000e+15 0.0000000000e+00 0.0000000000e+00 1.0000000000e+15 -1.0000000000e+15 0.0000000000e+00 0.0000000000e+00 
2175 0.0000000000e+00 1.0000000000e+15 -1.0000000000e+15 0.0000000000e+00 0.0000000000e+00 1.0000000000e+15 -1.0000000000e+15 0.0000000000e+00 0.0000000000e+00 1.0000000000e+15 -1.0000000000e+15 0.0000000000e+00 0.0000000000e+00 1.0000000000e+15 -1.0000000000e+15 0.0000000000e+00 0.0000000000e+00 
2200 0.0000000000e+00 1.0000000000e+15 -1.0000000000e+15 0.0000000000e+00 0.0000000000e+00 1.0000000000e+15 -1.0000000000e+15 0.0000000000e+00 0.0000000000e+00 1.0000000000e+15 -1.0000000000e+15 0.0000000000e+00 0.0000000000e+00 1.0000000000e+15 -1.0000000000e+15 0.0000000000e+00 0.0000000000e+00 
2225 0.0000000000e+00 1.0000000000e+15 -1.0000000000e+15 0.0000000000e+00 0.0000000000e+00 1.0000000000e+15 -1.0000000000e+15 0.0000000000e+00 0.0000000000e+00 1.0000000000e+15 -1.0000000000e+15 0.0000000000e+00 0.0000000000e+00 1.0000000000e+15 -1.0000000000e+15 0.0000000000e+00 0.0000000000e+00 
2250 0.0000000000e+00 1.0000000000e+15 -1.0000000000e+15 0.0000000000e+00 0.0000000000e+00 1.0000000000e+15 -1.0000000000e+15 0.0000000000e+00 0.0000000000e+00 1.0000000000e+15 -1.0000000000e+15 0.0000000000e+00 0.0000000000e+00 1.0000000000e+15 -1.0000000000e+15 0.0000000000e+00 0.0000000000e+00 
2275 0.0000000000e+00 1.0000000000e+15 -1.0000000000e+15 0.0000000000e+00 0.0000000000e+00 1.0000000000e+15 -1.0000000000e+15 0.0000000000e+00 0.0000000000e+00 1.0000000000e+15 -1.0000000000e+15 0.0000000000e+00 0.0000000000e+00 1.0000000000e+15 -1.0000000000e+15 0.0000000000e+00 0.0000000000e+00 