# Time           	volumeFlux       	AoAmin           	AoAmax           	AoAmean          	AoAstDev         
947 -1.7390260269e-01 9.9156401585e+01 2.6729969099e+03 3.8901025168e+02 1.6549853088e+02 
948 -1.7390260269e-01 9.9141658426e+01 2.6850076357e+03 3.8900877126e+02 1.6550599083e+02 
949 -1.7390260269e-01 9.9142292676e+01 2.6716228489e+03 3.8902283137e+02 1.6552750335e+02 
950 -1.7390260269e-01 9.9132263072e+01 2.6697503126e+03 3.8902515203e+02 1.6553449437e+02 
951 -1.7390260269e-01 9.9134255814e+01 2.6690244772e+03 3.8903804775e+02 1.6554369648e+02 
952 -1.7390260269e-01 9.9121599946e+01 2.6751510106e+03 3.8903668786e+02 1.6555546064e+02 
953 -1.7390260269e-01 9.9128306293e+01 2.6672335015e+03 3.8904309648e+02 1.6556665334e+02 
954 -1.7390260269e-01 9.9117727163e+01 2.6669244502e+03 3.8904260295e+02 1.6557464526e+02 
955 -1.7390260269e-01 9.9114150027e+01 2.6671534042e+03 3.8905468574e+02 1.6558470832e+02 
956 -1.7390260269e-01 9.9096362719e+01 2.6680561446e+03 3.8905320652e+02 1.6559362094e+02 
957 -1.7390260269e-01 9.9092078870e+01 2.6664086650e+03 3.8906379483e+02 1.6560813475e+02 
958 -1.7390260269e-01 9.9079841548e+01 2.6771727983e+03 3.8906344083e+02 1.6561506877e+02 
959 -1.7390260269e-01 9.9082550371e+01 2.6670040306e+03 3.8907353393e+02 1.6562537332e+02 
960 -1.7390260269e-01 9.9072335332e+01 2.6702635924e+03 3.8906922747e+02 1.6563464743e+02 
961 -1.7390260269e-01 9.9082739967e+01 2.6693149173e+03 3.8908180100e+02 1.6564992579e+02 
962 -1.7390260269e-01 9.9072395600e+01 2.6827505516e+03 3.8908562702e+02 1.6566371069e+02 
963 -1.7390260269e-01 9.9069568856e+01 2.6684052212e+03 3.8909213257e+02 1.6566694465e+02 
964 -1.7390260269e-01 9.9049313694e+01 2.6691064394e+03 3.8908997311e+02 1.6567554580e+02 
965 -1.7390260269e-01 9.9044943529e+01 2.6659969604e+03 3.8909956878e+02 1.6568805754e+02 
966 -1.7390260269e-01 9.9031531332e+01 2.6670880085e+03 3.8910267750e+02 1.6570314162e+02 
967 -1.7390260269e-01 9.9035344359e+01 2.6667077511e+03 3.8911144639e+02 1.6571160859e+02 
968 -1.7390260269e-01 9.9023679472e+01 2.6683231258e+03 3.8911054625e+02 1.6571753763e+02 
969 -1.7390260269e-01 9.9030937948e+01 2.6645961100e+03 3.8912248168e+02 1.6573223909e+02 
970 -1.7390260269e-01 9.9022686180e+01 2.6635228440e+03 3.8912434856e+02 1.6574339248e+02 
971 -1.7390260269e-01 9.9022584169e+01 2.6667678821e+03 3.8913242791e+02 1.6574911590e+02 
972 -1.7390260269e-01 9.9004343796e+01 2.6629007970e+03 3.8913329999e+02 1.6576091083e+02 
973 -1.7390260269e-01 9.9002202564e+01 2.6681353309e+03 3.8914115096e+02 1.6577262532e+02 
974 -1.7390260269e-01 9.8990957074e+01 2.6939837898e+03 3.8914046374e+02 1.6577994457e+02 
975 -1.7390260269e-01 9.8995528414e+01 2.6715564075e+03 3.8915183268e+02 1.6578854393e+02 
976 -1.7390260269e-01 9.8983194668e+01 2.6648667856e+03 3.8914870464e+02 1.6579444968e+02 
977 -1.7390260269e-01 9.8988830451e+01 2.6660923902e+03 3.8915947090e+02 1.6580764550e+02 
978 -1.7390260269e-01 9.8980064217e+01 2.6826566760e+03 3.8915894805e+02 1.6581702662e+02 
979 -1.7390260269e-01 9.8979655958e+01 2.6703446545e+03 3.8916777962e+02 1.6582629978e+02 
980 -1.7390260269e-01 9.8961095625e+01 2.6789573761e+03 3.8916833977e+02 1.6583747608e+02 
981 -1.7390260269e-01 9.8959783262e+01 2.6710427975e+03 3.8917852224e+02 1.6584889620e+02 
982 -1.7390260269e-01 9.8950107240e+01 2.6749779869e+03 3.8917647927e+02 1.6585653863e+02 
983 -1.7390260269e-01 9.8957094011e+01 2.6691522263e+03 3.8918744576e+02 1.6586471964e+02 
984 -1.7390260269e-01 9.8946412623e+01 2.6742708304e+03 3.8918437864e+02 1.6587144249e+02 
985 -1.7390260269e-01 9.8955767223e+01 2.6681128501e+03 3.8920125029e+02 1.6588982753e+02 
986 -1.7390260269e-01 9.8947743531e+01 2.6790263764e+03 3.8919730602e+02 1.6589062960e+02 
987 -1.7390260269e-01 9.8948115141e+01 2.6715723207e+03 3.8920984155e+02 1.6590162387e+02 
988 -1.7390260269e-01 9.8930966306e+01 2.6790007429e+03 3.8920536375e+02 1.6590824466e+02 
989 -1.7390260269e-01 9.8931231087e+01 2.6686864195e+03 3.8921848043e+02 1.6592556973e+02 
990 -1.7390260269e-01 9.8921881318e+01 2.6720816360e+03 3.8921844936e+02 1.6593392256e+02 
991 -1.7390260269e-01 9.8926876090e+01 2.6722209261e+03 3.8922639407e+02 1.6594116265e+02 
992 -1.7390260269e-01 9.8913921947e+01 2.6725134529e+03 3.8922440339e+02 1.6594801397e+02 
993 -1.7390260269e-01 9.8918154481e+01 2.6677597657e+03 3.8923407878e+02 1.6596015182e+02 
994 -1.7390260269e-01 9.8907349941e+01 2.6705455158e+03 3.8923265687e+02 1.6596546727e+02 
995 -1.7390260269e-01 9.8906979381e+01 2.6680324297e+03 3.8924145723e+02 1.6597142089e+02 
996 -1.7390260269e-01 9.8891528703e+01 2.6803152177e+03 3.8924079047e+02 1.6598117725e+02 
997 -1.7390260269e-01 9.8895356787e+01 2.6672938862e+03 3.8925201039e+02 1.6599439412e+02 
998 -1.7390260269e-01 9.8887897668e+01 2.6726267946e+03 3.8925051514e+02 1.6600020491e+02 
999 -1.7390260269e-01 9.8891108446e+01 2.6719675627e+03 3.8926403414e+02 1.6601067429e+02 
1000 -1.7390260269e-01 9.8876049420e+01 2.6797869640e+03 3.8925927415e+02 1.6601420247e+02 
1001 -1.7390260269e-01 9.8875393747e+01 2.6696384581e+03 3.8927086194e+02 1.6603201879e+02 
1002 -1.7390260269e-01 9.8866415696e+01 2.6687141770e+03 3.8926596921e+02 1.6603761615e+02 
1003 -1.7390260269e-01 9.8873954848e+01 2.6710459074e+03 3.8927623562e+02 1.6604434156e+02 
1004 -1.7390260269e-01 9.8864114008e+01 2.6727211710e+03 3.8927603877e+02 1.6605241531e+02 
1005 -1.7390260269e-01 9.8873510295e+01 2.6688657779e+03 3.8928607956e+02 1.6606185098e+02 
1006 -1.7390260269e-01 9.8865912175e+01 2.6759104824e+03 3.8928432972e+02 1.6606697158e+02 
1007 -1.7390260269e-01 9.8869944858e+01 2.6713471832e+03 3.8929169383e+02 1.6607520395e+02 
1008 -1.7390260269e-01 9.8855360250e+01 2.6758956834e+03 3.8929078651e+02 1.6608522724e+02 
1009 -1.7390260269e-01 9.8855176615e+01 2.6732569540e+03 3.8930130106e+02 1.6609894792e+02 
1010 -1.7390260269e-01 9.8840271925e+01 2.6717548190e+03 3.8930275563e+02 1.6610375004e+02 
1011 -1.7390260269e-01 9.8837537598e+01 2.6698910929e+03 3.8931136335e+02 1.6611273613e+02 
1012 -1.7390260269e-01 9.8821543056e+01 2.6650424755e+03 3.8930578818e+02 1.6611501087e+02 
1013 -1.7390260269e-01 9.8825174076e+01 2.6656539762e+03 3.8931436933e+02 1.6613028317e+02 
1014 -1.7390260269e-01 9.8814831445e+01 2.6651074634e+03 3.8931368040e+02 1.6613449390e+02 
1015 -1.7390260269e-01 9.8813991286e+01 2.6664436189e+03 3.8932542125e+02 1.6614719240e+02 
1016 -1.7390260269e-01 9.8796306254e+01 2.6645817601e+03 3.8932518414e+02 1.6615340155e+02 
1017 -1.7390260269e-01 9.8795292078e+01 2.6682078159e+03 3.8933424382e+02 1.6616093803e+02 
1018 -1.7390260269e-01 9.8784283720e+01 2.6686884048e+03 3.8933349181e+02 1.6617125397e+02 
1019 -1.7390260269e-01 9.8790053961e+01 2.6680858202e+03 3.8934320278e+02 1.6618136963e+02 
1020 -1.7390260269e-01 9.8779342382e+01 2.6629002077e+03 3.8934071442e+02 1.6618453918e+02 
1021 -1.7390260269e-01 9.8789646989e+01 2.6672924143e+03 3.8934896172e+02 1.6619664097e+02 
1022 -1.7390260269e-01 9.8781397590e+01 2.6687737321e+03 3.8935012881e+02 1.6620508034e+02 
1023 -1.7390260269e-01 9.8780953808e+01 2.6709767950e+03 3.8935642693e+02 1.6620931728e+02 
1024 -1.7390260269e-01 9.8763304286e+01 2.6773845003e+03 3.8935527335e+02 1.6621974744e+02 
1025 -1.7390260269e-01 9.8762394514e+01 2.6660175463e+03 3.8936241766e+02 1.6622895995e+02 
1026 -1.7390260269e-01 9.8752832106e+01 2.6651247098e+03 3.8936457862e+02 1.6623472939e+02 
1027 -1.7390260269e-01 9.8759804016e+01 2.6654626167e+03 3.8937182191e+02 1.6624204601e+02 
1028 -1.7390260269e-01 9.8750009306e+01 2.6628984017e+03 3.8937076724e+02 1.6625265371e+02 
1029 -1.7390260269e-01 9.8760350455e+01 2.6674311957e+03 3.8937985476e+02 1.6626110147e+02 
1030 -1.7390260269e-01 9.8753495243e+01 2.6735075228e+03 3.8938003637e+02 1.6626752508e+02 
1031 -1.7390260269e-01 9.8755954548e+01 2.6711434158e+03 3.8938723007e+02 1.6627563247e+02 
1032 -1.7390260269e-01 9.8739795376e+01 2.6728431874e+03 3.8938233737e+02 1.6627825898e+02 
1033 -1.7390260269e-01 9.8740841668e+01 2.6718222494e+03 3.8939539644e+02 1.6629300443e+02 
1034 -1.7390260269e-01 9.8732098419e+01 2.6816487275e+03 3.8939748573e+02 1.6629902016e+02 
1035 -1.7390260269e-01 9.8738479838e+01 2.6730376843e+03 3.8940760184e+02 1.6630477315e+02 
1036 -1.7390260269e-01 9.8727481796e+01 2.6659951736e+03 3.8940204162e+02 1.6631128882e+02 
1037 -1.7390260269e-01 9.8733946698e+01 2.6664865371e+03 3.8940756914e+02 1.6632093365e+02 
1038 -1.7390260269e-01 9.8724386392e+01 2.6673760641e+03 3.8940554231e+02 1.6632358690e+02 
1039 -1.7390260269e-01 9.8723746516e+01 2.6715173651e+03 3.8941835148e+02 1.6633648594e+02 
1040 -1.7390260269e-01 9.8706912043e+01 2.6817750049e+03 3.8941561036e+02 1.6634352738e+02 
1041 -1.7390260269e-01 9.8708490156e+01 2.6707847368e+03 3.8942795909e+02 1.6635512085e+02 
1042 -1.7390260269e-01 9.8700287469e+01 2.6708472853e+03 3.8942598198e+02 1.6636054282e+02 
1043 -1.7390260269e-01 9.8706530749e+01 2.6695987977e+03 3.8943320914e+02 1.6636643688e+02 
1044 -1.7390260269e-01 9.8694323804e+01 2.6684012467e+03 3.8942663572e+02 1.6636405539e+02 
1045 -1.7390260269e-01 9.8697227731e+01 2.6703785611e+03 3.8944039963e+02 1.6638214144e+02 
1046 -1.7390260269e-01 9.8685409979e+01 2.6801051415e+03 3.8943812477e+02 1.6638532744e+02 
1047 -1.7390260269e-01 9.8682782919e+01 2.6698318628e+03 3.8944815646e+02 1.6639255667e+02 
1048 -1.7390260269e-01 9.8666766752e+01 2.6750210072e+03 3.8944193920e+02 1.6639606119e+02 
1049 -1.7390260269e-01 9.8671971739e+01 2.6691269765e+03 3.8945306799e+02 1.6640898289e+02 
1050 -1.7390260269e-01 9.8666410810e+01 2.6825843346e+03 3.8945384517e+02 1.6641404873e+02 
1051 -1.7390260269e-01 9.8673563527e+01 2.6731044711e+03 3.8946094355e+02 1.6642247419e+02 
1052 -1.7390260269e-01 9.8660649311e+01 2.6680896775e+03 3.8945627416e+02 1.6642794482e+02 
1053 -1.7390260269e-01 9.8662177482e+01 2.6695496413e+03 3.8946525002e+02 1.6644092768e+02 
1054 -1.7390260269e-01 9.8651224033e+01 2.6695111649e+03 3.8946467734e+02 1.6644719838e+02 
1055 -1.7390260269e-01 9.8653654348e+01 2.6700630671e+03 3.8947281005e+02 1.6644895726e+02 
1056 -1.7390260269e-01 9.8640823589e+01 2.6742246814e+03 3.8946762612e+02 1.6645238637e+02 
1057 -1.7390260269e-01 9.8649022542e+01 2.6693693294e+03 3.8947824766e+02 1.6646478055e+02 
1058 -1.7390260269e-01 9.8642393621e+01 2.6761114540e+03 3.8948042095e+02 1.6647107631e+02 
1059 -1.7390260269e-01 9.8645107132e+01 2.6715858168e+03 3.8948767027e+02 1.6647470136e+02 
1060 -1.7390260269e-01 9.8628955393e+01 2.6770417562e+03 3.8948669347e+02 1.6648424487e+02 
1061 -1.7390260269e-01 9.8628452484e+01 2.6713639916e+03 3.8949381893e+02 1.6649246657e+02 
1062 -1.7390260269e-01 9.8618194703e+01 2.6707660038e+03 3.8949246267e+02 1.6649817733e+02 
1063 -1.7390260269e-01 9.8623758203e+01 2.6702310620e+03 3.8949984650e+02 1.6650411961e+02 
1064 -1.7390260269e-01 9.8613230953e+01 2.6740577694e+03 3.8949623975e+02 1.6650894219e+02 
1065 -1.7390260269e-01 9.8622147740e+01 2.6650387108e+03 3.8950937400e+02 1.6651931008e+02 
1066 -1.7390260269e-01 9.8613604584e+01 2.6698383341e+03 3.8951384524e+02 1.6653442055e+02 
1067 -1.7390260269e-01 9.8613468601e+01 2.6716844287e+03 3.8951891369e+02 1.6653641636e+02 
1068 -1.7390260269e-01 9.8595757978e+01 2.6739200142e+03 3.8951248139e+02 1.6653943036e+02 
1069 -1.7390260269e-01 9.8595543523e+01 2.6685466681e+03 3.8952192520e+02 1.6655067902e+02 
1070 -1.7390260269e-01 9.8588001688e+01 2.6706005110e+03 3.8952335575e+02 1.6655439407e+02 
1071 -1.7390260269e-01 9.8597818302e+01 2.6719275305e+03 3.8953194492e+02 1.6656198020e+02 
1072 -1.7390260269e-01 9.8589355832e+01 2.6671696484e+03 3.8952851614e+02 1.6656922629e+02 
1073 -1.7390260269e-01 9.8598436633e+01 2.6675935700e+03 3.8953454892e+02 1.6657520984e+02 
1074 -1.7390260269e-01 9.8589409479e+01 2.6688700756e+03 3.8953671394e+02 1.6658423687e+02 
1075 -1.7390260269e-01 9.8588731048e+01 2.6734787566e+03 3.8954458011e+02 1.6659003435e+02 
1076 -1.7390260269e-01 9.8570946472e+01 2.6719933866e+03 3.8953756857e+02 1.6658706497e+02 
1077 -1.7390260269e-01 9.8570165057e+01 2.6699933320e+03 3.8954569289e+02 1.6659690080e+02 
1078 -1.7390260269e-01 9.8561042647e+01 2.6681917439e+03 3.8954584847e+02 1.6660389653e+02 
1079 -1.7390260269e-01 9.8568112200e+01 2.6702262713e+03 3.8955225498e+02 1.6660521994e+02 
1080 -1.7390260269e-01 9.8558893748e+01 2.6666697822e+03 3.8955458688e+02 1.6661700779e+02 
1081 -1.7390260269e-01 9.8568199350e+01 2.6681589011e+03 3.8956149773e+02 1.6662630604e+02 
1082 -1.7390260269e-01 9.8561303608e+01 2.6734401392e+03 3.8955743431e+02 1.6662881063e+02 
1083 -1.7390260269e-01 9.8565250186e+01 2.6721538429e+03 3.8956594771e+02 1.6663224318e+02 
1084 -1.7390260269e-01 9.8550837158e+01 2.6679223932e+03 3.8956118588e+02 1.6663384193e+02 
1085 -1.7390260269e-01 9.8553673310e+01 2.6680267093e+03 3.8957157292e+02 1.6664763312e+02 
1086 -1.7390260269e-01 9.8544886602e+01 2.6741332838e+03 3.8956738988e+02 1.6665119995e+02 
1087 -1.7390260269e-01 9.8549913923e+01 2.6718757639e+03 3.8957880841e+02 1.6665989861e+02 
1088 -1.7390260269e-01 9.8538441355e+01 2.6837124597e+03 3.8957276116e+02 1.6666126581e+02 
1089 -1.7390260269e-01 9.8544079847e+01 2.6722736996e+03 3.8958370418e+02 1.6667584613e+02 
1090 -1.7390260269e-01 9.8535013353e+01 2.6695442219e+03 3.8958197945e+02 1.6667873497e+02 
1091 -1.7390260269e-01 9.8536968761e+01 2.6727367554e+03 3.8959214100e+02 1.6668902982e+02 
1092 -1.7390260269e-01 9.8522264094e+01 2.6737634238e+03 3.8958798007e+02 1.6669182353e+02 
1093 -1.7390260269e-01 9.8526793022e+01 2.6697464794e+03 3.8959881723e+02 1.6670334307e+02 
1094 -1.7390260269e-01 9.8519293151e+01 2.6697104630e+03 3.8959651675e+02 1.6670426272e+02 
1095 -1.7390260269e-01 9.8524952458e+01 2.6731511630e+03 3.8960341311e+02 1.6670847383e+02 
1096 -1.7390260269e-01 9.8512490530e+01 2.6745167484e+03 3.8960314802e+02 1.6671166340e+02 
1097 -1.7390260269e-01 9.8515804739e+01 2.6694235907e+03 3.8961103273e+02 1.6672369854e+02 
1098 -1.7390260269e-01 9.8505384411e+01 2.6688656586e+03 3.8961100118e+02 1.6672937557e+02 
1099 -1.7390260269e-01 9.8506734704e+01 2.6697778238e+03 3.8961988143e+02 1.6673734352e+02 
1100 -1.7390260269e-01 9.8493212858e+01 2.6661785877e+03 3.8961174770e+02 1.6673675173e+02 
1101 -1.7390260269e-01 9.8501225290e+01 2.6696802733e+03 3.8962000712e+02 1.6674613937e+02 
1102 -1.7390260269e-01 9.8497351455e+01 2.6711607331e+03 3.8962361109e+02 1.6675216767e+02 
1103 -1.7390260269e-01 9.8504423255e+01 2.6706068928e+03 3.8963051110e+02 1.6675939003e+02 
1104 -1.7390260269e-01 9.8491922212e+01 2.6771405420e+03 3.8962264246e+02 1.6675675506e+02 
1105 -1.7390260269e-01 9.8491543982e+01 2.6710086646e+03 3.8963477175e+02 1.6677033806e+02 
1106 -1.7390260269e-01 9.8483261621e+01 2.6859880488e+03 3.8963012000e+02 1.6677018961e+02 
1107 -1.7390260269e-01 9.8494220659e+01 2.6714969628e+03 3.8963927112e+02 1.6677743194e+02 
1108 -1.7390260269e-01 9.8489106463e+01 2.6715638619e+03 3.8963772774e+02 1.6678270550e+02 
1109 -1.7390260269e-01 9.8501439823e+01 2.6685314625e+03 3.8964750602e+02 1.6679367493e+02 
1110 -1.7390260269e-01 9.8493888153e+01 2.6700430450e+03 3.8964585995e+02 1.6679746991e+02 
1111 -1.7390260269e-01 9.8496254383e+01 2.6697155148e+03 3.8965012847e+02 1.6680064824e+02 
1112 -1.7390260269e-01 9.8481485481e+01 2.6746723430e+03 3.8964488649e+02 1.6679984487e+02 
1113 -1.7390260269e-01 9.8483793799e+01 2.6670397272e+03 3.8965333620e+02 1.6680918932e+02 
1114 -1.7390260269e-01 9.8471174264e+01 2.6698906540e+03 3.8965634124e+02 1.6682043668e+02 
1115 -1.7390260269e-01 9.8471036698e+01 2.6693205110e+03 3.8966376865e+02 1.6682399676e+02 
1116 -1.7390260269e-01 9.8457832727e+01 2.6746521375e+03 3.8965750362e+02 1.6682309724e+02 
1117 -1.7390260269e-01 9.8464786479e+01 2.6717358545e+03 3.8966728864e+02 1.6683572765e+02 
1118 -1.7390260269e-01 9.8457426813e+01 2.6702755630e+03 3.8966621873e+02 1.6684052721e+02 
1119 -1.7390260269e-01 9.8460356154e+01 2.6718104104e+03 3.8967222088e+02 1.6684332014e+02 
1120 -1.7390260269e-01 9.8445624761e+01 2.6731385438e+03 3.8967083454e+02 1.6684691552e+02 
1121 -1.7390260269e-01 9.8447353564e+01 2.6703694491e+03 3.8967749260e+02 1.6685596830e+02 
1122 -1.7390260269e-01 9.8438145759e+01 2.6708314671e+03 3.8967569191e+02 1.6686160329e+02 
1123 -1.7390260269e-01 9.8444043880e+01 2.6737714547e+03 3.8968276091e+02 1.6686522324e+02 
1124 -1.7390260269e-01 9.8433741991e+01 2.6792657667e+03 3.8967473657e+02 1.6686289032e+02 
1125 -1.7390260269e-01 9.8443368057e+01 2.6712017925e+03 3.8968732113e+02 1.6687854521e+02 
1126 -1.7390260269e-01 9.8437198125e+01 2.6701436509e+03 3.8968826988e+02 1.6688459084e+02 
1127 -1.7390260269e-01 9.8440590918e+01 2.6710749991e+03 3.8969595021e+02 1.6688814603e+02 
1128 -1.7390260269e-01 9.8425810829e+01 2.6819625409e+03 3.8969532437e+02 1.6689099008e+02 
1129 -1.7390260269e-01 9.8426943131e+01 2.6730388385e+03 3.8970427781e+02 1.6690429091e+02 
1130 -1.7390260269e-01 9.8418023125e+01 2.6860089144e+03 3.8970125754e+02 1.6690673369e+02 
1131 -1.7390260269e-01 9.8423515506e+01 2.6732427580e+03 3.8970961650e+02 1.6690914230e+02 
1132 -1.7390260269e-01 9.8412678033e+01 2.6688744882e+03 3.8970735870e+02 1.6691410571e+02 
1133 -1.7390260269e-01 9.8420858564e+01 2.6711412160e+03 3.8971356832e+02 1.6692542402e+02 
1134 -1.7390260269e-01 9.8414590333e+01 2.6703741184e+03 3.8971232548e+02 1.6692931833e+02 
1135 -1.7390260269e-01 9.8418404970e+01 2.6705364368e+03 3.8971758283e+02 1.6693286684e+02 
1136 -1.7390260269e-01 9.8404292564e+01 2.6798221661e+03 3.8971309927e+02 1.6693009172e+02 
1137 -1.7390260269e-01 9.8406505071e+01 2.6698590360e+03 3.8972391101e+02 1.6694293120e+02 
1138 -1.7390260269e-01 9.8398914714e+01 2.6776950022e+03 3.8972737862e+02 1.6695495717e+02 
1139 -1.7390260269e-01 9.8405932870e+01 2.6694582117e+03 3.8973077402e+02 1.6695358116e+02 
1140 -1.7390260269e-01 9.8395917915e+01 2.6865953341e+03 3.8972458860e+02 1.6695187866e+02 
1141 -1.7390260269e-01 9.8403127136e+01 2.6726348794e+03 3.8973352243e+02 1.6696210388e+02 
1142 -1.7390260269e-01 9.8395532090e+01 2.6883435128e+03 3.8973619935e+02 1.6696891298e+02 
1143 -1.7390260269e-01 9.8397471184e+01 2.6744729886e+03 3.8974054767e+02 1.6697039452e+02 
1144 -1.7390260269e-01 9.8382463356e+01 2.6759861141e+03 3.8973513021e+02 1.6697026518e+02 
1145 -1.7390260269e-01 9.8385302552e+01 2.6720392803e+03 3.8974626842e+02 1.6698293512e+02 
1146 -1.7390260269e-01 9.8378428994e+01 2.6717757489e+03 3.8974816580e+02 1.6698782861e+02 
1147 -1.7390260269e-01 9.8386053912e+01 2.6722385855e+03 3.8975150313e+02 1.6698656184e+02 
1148 -1.7390260269e-01 9.8375376981e+01 2.6814427277e+03 3.8974651848e+02 1.6698777618e+02 
1149 -1.7390260269e-01 9.8379837143e+01 2.6720493510e+03 3.8975818363e+02 1.6700321492e+02 
1150 -1.7390260269e-01 9.8369436598e+01 2.6770990023e+03 3.8975488324e+02 1.6701007474e+02 
1151 -1.7390260269e-01 9.8369548824e+01 2.6714812773e+03 3.8975934370e+02 1.6700941016e+02 
1152 -1.7390260269e-01 9.8355540711e+01 2.6797585170e+03 3.8975418811e+02 1.6700477686e+02 
1153 -1.7390260269e-01 9.8363469036e+01 2.6719386850e+03 3.8976793831e+02 1.6702298297e+02 
1154 -1.7390260269e-01 9.8360175082e+01 2.6759786780e+03 3.8976509823e+02 1.6702692027e+02 
1155 -1.7390260269e-01 9.8369242097e+01 2.6723984855e+03 3.8976966838e+02 1.6702742468e+02 
1156 -1.7390260269e-01 9.8358920921e+01 2.6800269260e+03 3.8976694025e+02 1.6702835730e+02 
1157 -1.7390260269e-01 9.8363370052e+01 2.6724921983e+03 3.8977493025e+02 1.6703837401e+02 
1158 -1.7390260269e-01 9.8356307859e+01 2.6868984061e+03 3.8977311651e+02 1.6704159399e+02 
1159 -1.7390260269e-01 9.8361855698e+01 2.6735330271e+03 3.8978356567e+02 1.6704956737e+02 
1160 -1.7390260269e-01 9.8350323553e+01 2.6782879664e+03 3.8977706452e+02 1.6704900776e+02 
1161 -1.7390260269e-01 9.8356375897e+01 2.6739087383e+03 3.8978663869e+02 1.6706123657e+02 
1162 -1.7390260269e-01 9.8349487635e+01 2.6728273708e+03 3.8978306958e+02 1.6706212085e+02 
1163 -1.7390260269e-01 9.8353249924e+01 2.6749024895e+03 3.8979258861e+02 1.6706775025e+02 
1164 -1.7390260269e-01 9.8339374375e+01 2.6824598241e+03 3.8978337012e+02 1.6706079316e+02 
1165 -1.7390260269e-01 9.8340961172e+01 2.6712786180e+03 3.8979613473e+02 1.6707628915e+02 
1166 -1.7390260269e-01 9.8332407376e+01 2.6704692347e+03 3.8979288195e+02 1.6707858993e+02 
1167 -1.7390260269e-01 9.8337610763e+01 2.6724091031e+03 3.8979977499e+02 1.6708110829e+02 
1168 -1.7390260269e-01 9.8327078434e+01 2.6672162808e+03 3.8979638825e+02 1.6708248593e+02 
1169 -1.7390260269e-01 9.8335376352e+01 2.6713483515e+03 3.8980435729e+02 1.6709489975e+02 
1170 -1.7390260269e-01 9.8329476673e+01 2.6731333413e+03 3.8980184987e+02 1.6709714853e+02 
1171 -1.7390260269e-01 9.8332867836e+01 2.6708877473e+03 3.8980949979e+02 1.6710228341e+02 
1172 -1.7390260269e-01 9.8317712757e+01 2.6745998753e+03 3.8980186887e+02 1.6710305435e+02 
1173 -1.7390260269e-01 9.8319161261e+01 2.6699417483e+03 3.8981098668e+02 1.6711115249e+02 
1174 -1.7390260269e-01 9.8312903864e+01 2.6759309643e+03 3.8981159933e+02 1.6711379652e+02 
1175 -1.7390260269e-01 9.8323118513e+01 2.6732618277e+03 3.8981781497e+02 1.6711655305e+02 
1176 -1.7390260269e-01 9.8315654537e+01 2.6774749466e+03 3.8981305339e+02 1.6711324468e+02 
1177 -1.7390260269e-01 9.8324810760e+01 2.6735106009e+03 3.8981984026e+02 1.6712531108e+02 
1178 -1.7390260269e-01 9.8317902294e+01 2.6796412044e+03 3.8982341312e+02 1.6713629797e+02 
1179 -1.7390260269e-01 9.8320080666e+01 2.6734659766e+03 3.8983006374e+02 1.6714015977e+02 
1180 -1.7390260269e-01 9.8304863066e+01 2.6748552611e+03 3.8982512428e+02 1.6713892646e+02 
1181 -1.7390260269e-01 9.8307141931e+01 2.6710133321e+03 3.8983453899e+02 1.6714925548e+02 
1182 -1.7390260269e-01 9.8300578546e+01 2.6756877323e+03 3.8983003405e+02 1.6715073033e+02 
1183 -1.7390260269e-01 9.8308363901e+01 2.6743574134e+03 3.8983786668e+02 1.6715688031e+02 
1184 -1.7390260269e-01 9.8299067143e+01 2.6766237560e+03 3.8983186438e+02 1.6715562223e+02 
1185 -1.7390260269e-01 9.8307484880e+01 2.6695091981e+03 3.8983997055e+02 1.6716646447e+02 
1186 -1.7390260269e-01 9.8301873066e+01 2.6729724315e+03 3.8983897800e+02 1.6716829954e+02 
1187 -1.7390260269e-01 9.8307294916e+01 2.6746136738e+03 3.8984525024e+02 1.6716788713e+02 
1188 -1.7390260269e-01 9.8294704112e+01 2.6757408015e+03 3.8983771511e+02 1.6716802769e+02 
1189 -1.7390260269e-01 9.8298637118e+01 2.6704851474e+03 3.8984772665e+02 1.6717960626e+02 
1190 -1.7390260269e-01 9.8292146777e+01 2.6688931459e+03 3.8985272430e+02 1.6718944837e+02 
1191 -1.7390260269e-01 9.8298622421e+01 2.6700623126e+03 3.8985746602e+02 1.6719046290e+02 
1192 -1.7390260269e-01 9.8287872812e+01 2.6756465822e+03 3.8985082582e+02 1.6718810717e+02 
1193 -1.7390260269e-01 9.8294128731e+01 2.6684780717e+03 3.8986166992e+02 1.6720146941e+02 
1194 -1.7390260269e-01 9.8287656891e+01 2.6703118505e+03 3.8985917457e+02 1.6720271519e+02 
1195 -1.7390260269e-01 9.8293246163e+01 2.6707726333e+03 3.8986594147e+02 1.6720713749e+02 
1196 -1.7390260269e-01 9.8281635054e+01 2.6774883430e+03 3.8985840064e+02 1.6720777325e+02 
1197 -1.7390260269e-01 9.8287311606e+01 2.6670081785e+03 3.8986985354e+02 1.6721984631e+02 
1198 -1.7390260269e-01 9.8281463104e+01 2.6665771878e+03 3.8987028447e+02 1.6721934008e+02 
1199 -1.7390260269e-01 9.8287585968e+01 2.6689808962e+03 3.8987688318e+02 1.6722302908e+02 
1200 -1.7390260269e-01 9.8276367087e+01 2.6657903847e+03 3.8987245743e+02 1.6722106476e+02 
1201 -1.7390260269e-01 9.8282280184e+01 2.6719634927e+03 3.8988257761e+02 1.6723687447e+02 
1202 -1.7390260269e-01 9.8276772642e+01 2.6920040041e+03 3.8987822023e+02 1.6723987604e+02 
1203 -1.7390260269e-01 9.8284239740e+01 2.6724521403e+03 3.8988185780e+02 1.6723934026e+02 
1204 -1.7390260269e-01 9.8273955007e+01 2.6702348484e+03 3.8987791399e+02 1.6723967460e+02 
1205 -1.7390260269e-01 9.8279974142e+01 2.6714391596e+03 3.8988433828e+02 1.6724592882e+02 
1206 -1.7390260269e-01 9.8274116351e+01 2.6807219135e+03 3.8988299608e+02 1.6724918848e+02 
1207 -1.7390260269e-01 9.8281210650e+01 2.6738698473e+03 3.8989263266e+02 1.6725435208e+02 
1208 -1.7390260269e-01 9.8270497414e+01 2.6759977186e+03 3.8988868327e+02 1.6725377277e+02 
1209 -1.7390260269e-01 9.8276242368e+01 2.6710946596e+03 3.8989884140e+02 1.6726505993e+02 
1210 -1.7390260269e-01 9.8268102625e+01 2.6835080107e+03 3.8989475685e+02 1.6726610492e+02 
1211 -1.7390260269e-01 9.8269418884e+01 2.6727444613e+03 3.8990126648e+02 1.6726819204e+02 
1212 -1.7390260269e-01 9.8255884077e+01 2.6751822149e+03 3.8989514503e+02 1.6726744094e+02 
1213 -1.7390260269e-01 9.8259292657e+01 2.6731180269e+03 3.8990606360e+02 1.6727978341e+02 
1214 -1.7390260269e-01 9.8253642966e+01 2.6841448545e+03 3.8990570963e+02 1.6728375717e+02 
1215 -1.7390260269e-01 9.8257913550e+01 2.6721991224e+03 3.8990967857e+02 1.6728141390e+02 
1216 -1.7390260269e-01 9.8244829067e+01 2.6772027038e+03 3.8990584876e+02 1.6727822788e+02 
1217 -1.7390260269e-01 9.8247748977e+01 2.6708190801e+03 3.8991095428e+02 1.6728530402e+02 
1218 -1.7390260269e-01 9.8241616049e+01 2.6777957045e+03 3.8991095802e+02 1.6729323321e+02 
1219 -1.7390260269e-01 9.8249400354e+01 2.6731815798e+03 3.8992209203e+02 1.6730220631e+02 
1220 -1.7390260269e-01 9.8239560481e+01 2.6803590376e+03 3.8991185652e+02 1.6729644136e+02 
1221 -1.7390260269e-01 9.8247371709e+01 2.6675661030e+03 3.8992112429e+02 1.6730630272e+02 
1222 -1.7390260269e-01 9.8241703524e+01 2.6735132691e+03 3.8992346040e+02 1.6730948433e+02 
1223 -1.7390260269e-01 9.8245338959e+01 2.6732505745e+03 3.8992633407e+02 1.6731177223e+02 
1224 -1.7390260269e-01 9.8231395710e+01 2.6836942860e+03 3.8992177010e+02 1.6731162324e+02 
1225 -1.7390260269e-01 9.8233600098e+01 2.6710280861e+03 3.8992900029e+02 1.6732280883e+02 
1226 -1.7390260269e-01 9.8227242504e+01 2.6687341139e+03 3.8992558680e+02 1.6732153841e+02 
1227 -1.7390260269e-01 9.8235638123e+01 2.6695200469e+03 3.8993234209e+02 1.6732507481e+02 
1228 -1.7390260269e-01 9.8226882605e+01 2.6730332864e+03 3.8992724479e+02 1.6732437154e+02 
1229 -1.7390260269e-01 9.8234481785e+01 2.6727275135e+03 3.8993545174e+02 1.6733381054e+02 
1230 -1.7390260269e-01 9.8227936949e+01 2.6729706576e+03 3.8993911296e+02 1.6734273361e+02 
1231 -1.7390260269e-01 9.8231256580e+01 2.6721691797e+03 3.8994610101e+02 1.6734782302e+02 
1232 -1.7390260269e-01 9.8217886232e+01 2.6736705019e+03 3.8993743646e+02 1.6734117244e+02 
1233 -1.7390260269e-01 9.8223537715e+01 2.6709613580e+03 3.8994425948e+02 1.6735036346e+02 
1234 -1.7390260269e-01 9.8219593514e+01 2.6777396505e+03 3.8994277169e+02 1.6735519547e+02 
1235 -1.7390260269e-01 9.8229698472e+01 2.6725978036e+03 3.8994837397e+02 1.6735630458e+02 
1236 -1.7390260269e-01 9.8220682896e+01 2.6717562089e+03 3.8994625327e+02 1.6735700743e+02 
1237 -1.7390260269e-01 9.8225571497e+01 2.6725389260e+03 3.8995296276e+02 1.6736603947e+02 
1238 -1.7390260269e-01 9.8217236193e+01 2.6717659901e+03 3.8994916552e+02 1.6736513419e+02 
1239 -1.7390260269e-01 9.8219845748e+01 2.6721653448e+03 3.8995763681e+02 1.6736983314e+02 
1240 -1.7390260269e-01 9.8206582180e+01 2.6692367300e+03 3.8995036069e+02 1.6736661005e+02 
1241 -1.7390260269e-01 9.8212322815e+01 2.6705546364e+03 3.8995601559e+02 1.6737688773e+02 
1242 -1.7390260269e-01 9.8207317363e+01 2.6715267366e+03 3.8995864344e+02 1.6738364718e+02 
1243 -1.7390260269e-01 9.8213901677e+01 2.6725909066e+03 3.8996696181e+02 1.6738941882e+02 
1244 -1.7390260269e-01 9.8202420166e+01 2.6675197779e+03 3.8995926702e+02 1.6738476979e+02 
1245 -1.7390260269e-01 9.8206066308e+01 2.6684916458e+03 3.8996502672e+02 1.6739303440e+02 
1246 -1.7390260269e-01 9.8199082116e+01 2.6680934624e+03 3.8996412336e+02 1.6739520063e+02 
1247 -1.7390260269e-01 9.8205221068e+01 2.6704375251e+03 3.8996931624e+02 1.6739620504e+02 
1248 -1.7390260269e-01 9.8194588880e+01 2.6796443930e+03 3.8996613114e+02 1.6739464761e+02 
1249 -1.7390260269e-01 9.8201661001e+01 2.6697356163e+03 3.8997596393e+02 1.6740897427e+02 
1250 -1.7390260269e-01 9.8196109015e+01 2.6766600213e+03 3.8997498639e+02 1.6741005677e+02 
1251 -1.7390260269e-01 9.8201621311e+01 2.6722634641e+03 3.8998073591e+02 1.6741166076e+02 
1252 -1.7390260269e-01 9.8189421951e+01 2.6814952330e+03 3.8997622155e+02 1.6740956055e+02 
1253 -1.7390260269e-01 9.8194826758e+01 2.6714992200e+03 3.8998372085e+02 1.6742037244e+02 
1254 -1.7390260269e-01 9.8190398063e+01 2.6840612994e+03 3.8998434462e+02 1.6742308486e+02 
1255 -1.7390260269e-01 9.8202108784e+01 2.6731490279e+03 3.8998684144e+02 1.6742415666e+02 
1256 -1.7390260269e-01 9.8195403411e+01 2.6828918346e+03 3.8997997642e+02 1.6742206141e+02 
1257 -1.7390260269e-01 9.8204744894e+01 2.6713400533e+03 3.8998466880e+02 1.6742875249e+02 
1258 -1.7390260269e-01 9.8198571948e+01 2.6768157071e+03 3.8998587201e+02 1.6743281009e+02 
1259 -1.7390260269e-01 9.8200620550e+01 2.6703238942e+03 3.8999365967e+02 1.6743619406e+02 
1260 -1.7390260269e-01 9.8184751689e+01 2.6838056436e+03 3.8999064790e+02 1.6743644112e+02 
1261 -1.7390260269e-01 9.8184151609e+01 2.6742331929e+03 3.8999667550e+02 1.6744591427e+02 
1262 -1.7390260269e-01 9.8176054337e+01 2.6890722442e+03 3.8999396800e+02 1.6744549367e+02 
1263 -1.7390260269e-01 9.8186943372e+01 2.6778865750e+03 3.8999997028e+02 1.6745026162e+02 
1264 -1.7390260269e-01 9.8183836180e+01 2.6741941838e+03 3.8999437880e+02 1.6744487809e+02 
1265 -1.7390260269e-01 9.8200390556e+01 2.6738591024e+03 3.8999987992e+02 1.6745510251e+02 
1266 -1.7390260269e-01 9.8198481053e+01 2.6741943135e+03 3.9000040713e+02 1.6745722495e+02 
1267 -1.7390260269e-01 9.8202973152e+01 2.6738440087e+03 3.9000772114e+02 1.6746518902e+02 
1268 -1.7390260269e-01 9.8186238028e+01 2.6843182930e+03 3.9000066888e+02 1.6745843903e+02 
1269 -1.7390260269e-01 9.8179134202e+01 2.6734645367e+03 3.9000755739e+02 1.6746780214e+02 
1270 -1.7390260269e-01 9.8166490727e+01 2.6790281711e+03 3.9001011888e+02 1.6746933950e+02 
1271 -1.7390260269e-01 9.8172122608e+01 2.6724995131e+03 3.9001422019e+02 1.6747262812e+02 