# Time           	volumeFlux       	AoAmin           	AoAmax           	AoAmean          	AoAstDev         
