# Time           	volumeFlux       	AoAmin           	AoAmax           	AoAmean          	AoAstDev         
1 -8.9863074998e-02 3.1314777589e+02 5.7499649773e+03 3.2293614923e+02 2.0660768629e+01 
2 -8.9863074998e-02 3.1464133183e+02 9.2279785895e+03 3.4316595474e+02 4.9976540397e+01 
3 -8.9863074998e-02 3.1689068953e+02 1.1793534947e+04 3.6750945987e+02 8.0392789657e+01 
4 -8.9863074998e-02 3.2071184887e+02 1.3685693452e+04 3.9060578817e+02 1.0573343420e+02 
5 -8.9863074998e-02 3.2432625403e+02 1.5071092214e+04 4.1092182179e+02 1.2717212771e+02 
6 -8.9863074998e-02 3.1978094411e+02 1.6171421208e+04 4.2844380105e+02 1.4625520929e+02 
7 -8.9863074998e-02 3.0876325456e+02 1.7032033258e+04 4.4309046734e+02 1.6326516207e+02 
8 -8.9863074998e-02 2.9134703163e+02 1.7817149384e+04 4.5523298041e+02 1.7929297050e+02 
9 -8.9863074998e-02 2.6540316795e+02 1.8473496073e+04 4.6524523892e+02 1.9479891804e+02 
10 -8.9863074998e-02 2.3252950485e+02 1.9105947347e+04 4.7286092315e+02 2.1011360403e+02 
11 -8.9863074998e-02 1.9605202835e+02 1.9767020311e+04 4.7821716971e+02 2.2567822966e+02 
12 -8.9863074998e-02 1.5901276426e+02 2.0419403603e+04 4.8136271038e+02 2.4146598590e+02 
13 -8.9863074998e-02 1.2402777463e+02 2.1036785953e+04 4.8226187425e+02 2.5806093040e+02 
14 -8.9863074998e-02 9.3801514857e+01 2.1631963610e+04 4.8137916692e+02 2.7522309136e+02 
15 -8.9863074998e-02 6.9164733769e+01 2.2184517126e+04 4.7877238196e+02 2.9306493368e+02 
16 -8.9863074998e-02 5.2998384085e+01 2.2794214920e+04 4.7506579195e+02 3.1080931833e+02 
17 -8.9863074998e-02 4.2699188571e+01 2.3334042716e+04 4.7072198174e+02 3.2847956810e+02 
18 -8.9863074998e-02 3.4517918905e+01 2.3878364872e+04 4.6626600837e+02 3.4538742642e+02 
19 -8.9863074998e-02 3.2544664869e+01 2.4415028906e+04 4.6199908082e+02 3.6126692819e+02 
20 -8.9863074998e-02 2.9009973829e+01 2.4964005332e+04 4.5808059927e+02 3.7581354217e+02 
21 -8.9863074998e-02 2.7797992946e+01 2.5499164841e+04 4.5485612753e+02 3.8935943023e+02 
22 -8.9863074998e-02 2.5600506606e+01 2.5996624804e+04 4.5201352180e+02 4.0189945037e+02 
23 -8.9863074998e-02 2.2476841790e+01 2.6499234166e+04 4.4979533388e+02 4.1356804368e+02 
24 -8.9863074998e-02 2.0952108167e+01 2.6969657012e+04 4.4783049379e+02 4.2436109362e+02 
25 -8.9863074998e-02 1.9730570230e+01 2.7427235938e+04 4.4616524684e+02 4.3447855360e+02 
26 -8.9863074998e-02 1.8725543197e+01 2.7859240988e+04 4.4458376022e+02 4.4386373655e+02 
27 -8.9863074998e-02 1.8242699612e+01 2.8285158941e+04 4.4335289182e+02 4.5269065966e+02 
28 -8.9863074998e-02 1.8290382749e+01 2.8689410160e+04 4.4217420550e+02 4.6096541851e+02 
29 -8.9863074998e-02 1.8189525730e+01 2.9151085969e+04 4.4126495540e+02 4.6876506639e+02 
30 -8.9863074998e-02 1.8187996726e+01 2.9583291041e+04 4.4043360974e+02 4.7612525379e+02 
31 -8.9863074998e-02 1.8269974482e+01 3.0002145562e+04 4.3976799611e+02 4.8316382582e+02 
32 -8.9863074998e-02 1.8322179216e+01 3.0393032140e+04 4.3923297671e+02 4.8981251325e+02 
33 -8.9863074998e-02 1.8350343292e+01 3.0777389099e+04 4.3869089274e+02 4.9615975303e+02 
34 -8.9863074998e-02 1.8428533766e+01 3.1142958384e+04 4.3827469904e+02 5.0225258229e+02 
35 -8.9863074998e-02 1.8393016125e+01 3.1494609777e+04 4.3792889385e+02 5.0817626543e+02 
36 -8.9863074998e-02 1.8364762933e+01 3.1852282818e+04 4.3756694980e+02 5.1371870685e+02 
37 -8.9863074998e-02 1.8328279911e+01 3.2194692932e+04 4.3733329069e+02 5.1912574917e+02 
38 -8.9863074998e-02 1.8340036985e+01 3.2525426274e+04 4.3704950093e+02 5.2425372104e+02 
39 -8.9863074998e-02 1.8326797558e+01 3.2843775382e+04 4.3685896425e+02 5.2913015793e+02 
40 -8.9863074998e-02 1.8302249815e+01 3.3150919024e+04 4.3655000367e+02 5.3380222885e+02 
41 -8.9863074998e-02 1.8259762064e+01 3.3446429940e+04 4.3638108430e+02 5.3834695916e+02 
42 -8.9863074998e-02 1.8218974967e+01 3.3730899820e+04 4.3603447438e+02 5.4254431435e+02 
43 -8.9863074998e-02 1.8186808274e+01 3.4015603961e+04 4.3586435378e+02 5.4656591816e+02 
44 -8.9863074998e-02 1.8163481772e+01 3.4299143701e+04 4.3554201047e+02 5.5037481452e+02 
45 -8.9863074998e-02 1.8145887151e+01 3.4574740675e+04 4.3533111442e+02 5.5398699286e+02 
46 -8.9863074998e-02 1.8132482949e+01 3.4839920667e+04 4.3488887299e+02 5.5744627729e+02 
47 -8.9863074998e-02 1.8122720043e+01 3.5095259583e+04 4.3467531227e+02 5.6070064772e+02 
48 -8.9863074998e-02 1.8117557111e+01 3.5340351343e+04 4.3425677060e+02 5.6376092339e+02 
49 -8.9863074998e-02 1.8115171448e+01 3.5574234081e+04 4.3401563545e+02 5.6680761250e+02 
50 -8.9863074998e-02 1.8117138651e+01 3.5798534559e+04 4.3343923518e+02 5.6952577945e+02 
51 -8.9863074998e-02 1.8118111012e+01 3.6013696297e+04 4.3319787253e+02 5.7229383045e+02 
52 -8.9863074998e-02 1.8117415606e+01 3.6234879253e+04 4.3258700226e+02 5.7472599892e+02 
53 -8.9863074998e-02 1.8114984825e+01 3.6455570993e+04 4.3229543673e+02 5.7713862780e+02 
54 -8.9863074998e-02 1.8112756001e+01 3.6666854275e+04 4.3160250897e+02 5.7926913765e+02 
55 -8.9863074998e-02 1.8113232001e+01 3.6869331982e+04 4.3138021079e+02 5.8151875600e+02 
56 -8.9863074998e-02 1.8117480175e+01 3.7063918643e+04 4.3075467884e+02 5.8357860467e+02 
57 -8.9863074998e-02 1.8122157913e+01 3.7250272255e+04 4.3024677351e+02 5.8538006295e+02 
58 -8.9863074998e-02 1.8143058964e+01 3.7428834440e+04 4.2955323595e+02 5.8720971379e+02 
59 -8.9863074998e-02 1.8152144901e+01 3.7599979125e+04 4.2908692456e+02 5.8880559332e+02 
60 -8.9863074998e-02 1.8150860207e+01 3.7765712074e+04 4.2838395694e+02 5.9038592474e+02 
61 -8.9863074998e-02 1.8180636711e+01 3.7929169172e+04 4.2783500602e+02 5.9168398914e+02 
62 -8.9863074998e-02 1.8191418367e+01 3.8086198624e+04 4.2707206061e+02 5.9326628425e+02 
63 -8.9863074998e-02 1.8188091911e+01 3.8225351834e+04 4.2664449267e+02 5.9455391488e+02 
64 -8.9863074998e-02 1.8197448069e+01 3.8359224405e+04 4.2585486354e+02 5.9566676024e+02 
65 -8.9863074998e-02 1.8197432170e+01 3.8488226628e+04 4.2532289104e+02 5.9675495761e+02 
66 -8.9863074998e-02 1.8221602416e+01 3.8612639944e+04 4.2451592854e+02 5.9790914745e+02 
67 -8.9863074998e-02 1.8220344241e+01 3.8742979430e+04 4.2406074311e+02 5.9895958050e+02 
68 -8.9863074998e-02 1.8207229128e+01 3.8868402768e+04 4.2326499091e+02 5.9985411790e+02 
69 -8.9863074998e-02 1.8211080382e+01 3.8989345097e+04 4.2276780716e+02 6.0078608756e+02 
70 -8.9863074998e-02 1.8196752609e+01 3.9105832780e+04 4.2195857891e+02 6.0171833003e+02 
71 -8.9863074998e-02 1.8204266606e+01 3.9218611336e+04 4.2154038468e+02 6.0256313107e+02 
72 -8.9863074998e-02 1.8201218171e+01 3.9328005615e+04 4.2073741889e+02 6.0330581575e+02 
73 -8.9863074998e-02 1.8203432969e+01 3.9432894804e+04 4.2028095726e+02 6.0406684944e+02 
74 -8.9863074998e-02 1.8203161693e+01 3.9533327766e+04 4.1950791772e+02 6.0484319925e+02 
75 -8.9863074998e-02 1.8216148477e+01 3.9629771608e+04 4.1919655539e+02 6.0569204870e+02 
76 -8.9863074998e-02 1.8207808073e+01 3.9722045895e+04 4.1841634002e+02 6.0619662099e+02 
77 -8.9863074998e-02 1.8224257822e+01 3.9810332789e+04 4.1798253243e+02 6.0683542903e+02 
78 -8.9863074998e-02 1.8218896094e+01 3.9894921954e+04 4.1723817994e+02 6.0736003953e+02 
79 -8.9863074998e-02 1.8204825595e+01 3.9976017529e+04 4.1704080188e+02 6.0821017219e+02 
80 -8.9863074998e-02 1.8220166576e+01 4.0053801058e+04 4.1621955695e+02 6.0851193033e+02 
81 -8.9863074998e-02 1.8220635536e+01 4.0128420611e+04 4.1600444005e+02 6.0923988091e+02 
82 -8.9863074998e-02 1.8217224929e+01 4.0199995770e+04 4.1525642874e+02 6.0952908563e+02 
83 -8.9863074998e-02 1.8234791111e+01 4.0268655541e+04 4.1504311792e+02 6.1013697119e+02 
84 -8.9863074998e-02 1.8227234590e+01 4.0334564060e+04 4.1437340197e+02 6.1050151008e+02 
85 -8.9863074998e-02 1.8217000231e+01 4.0397873932e+04 4.1417113925e+02 6.1114181138e+02 
86 -8.9863074998e-02 1.8213125667e+01 4.0458706115e+04 4.1349713355e+02 6.1153367615e+02 
87 -8.9863074998e-02 1.8203760616e+01 4.0517160125e+04 4.1340974014e+02 6.1214534999e+02 
88 -8.9863074998e-02 1.8214891272e+01 4.0573300818e+04 4.1270186223e+02 6.1238578757e+02 
89 -8.9863074998e-02 1.8213325324e+01 4.0627181646e+04 4.1249857680e+02 6.1280070934e+02 
90 -8.9863074998e-02 1.8224716498e+01 4.0678860392e+04 4.1191890506e+02 6.1330117015e+02 
91 -8.9863074998e-02 1.8223832094e+01 4.0728411746e+04 4.1175639903e+02 6.1360390433e+02 
92 -8.9863074998e-02 1.8222643774e+01 4.0775910351e+04 4.1119860856e+02 6.1383138781e+02 
93 -8.9863074998e-02 1.8221930316e+01 4.0821445207e+04 4.1116749359e+02 6.1449593325e+02 
94 -8.9863074998e-02 1.8216439999e+01 4.0865108959e+04 4.1059097861e+02 6.1469548280e+02 
95 -8.9863074998e-02 1.8221052986e+01 4.0906981455e+04 4.1042746806e+02 6.1523464557e+02 
96 -8.9863074998e-02 1.8221037157e+01 4.0947130674e+04 4.0994492846e+02 6.1543674588e+02 
97 -8.9863074998e-02 1.8201439198e+01 4.0985608996e+04 4.0994549437e+02 6.1615401155e+02 
98 -8.9863074998e-02 1.8205216297e+01 4.1022471765e+04 4.0946220379e+02 6.1644456850e+02 
99 -8.9863074998e-02 1.8194059499e+01 4.1057758417e+04 4.0935342162e+02 6.1683562984e+02 
100 -8.9863074998e-02 1.8181179337e+01 4.1091524205e+04 4.0887996283e+02 6.1706668193e+02 
101 -8.9863074998e-02 1.8195374699e+01 4.1123825029e+04 4.0886497682e+02 6.1770193591e+02 
102 -8.9863074998e-02 1.8198449924e+01 4.1154734681e+04 4.0840698300e+02 6.1803776758e+02 
103 -8.9863074998e-02 1.8205174953e+01 4.1184310431e+04 4.0830375784e+02 6.1840277626e+02 
104 -8.9863074998e-02 1.8219274330e+01 4.1214061000e+04 4.0791582307e+02 6.1864676924e+02 
105 -8.9863074998e-02 1.8214245121e+01 4.1242985683e+04 4.0800014590e+02 6.1935005905e+02 
106 -8.9863074998e-02 1.8223155147e+01 4.1270697457e+04 4.0753875624e+02 6.1949742016e+02 
107 -8.9863074998e-02 1.8222426387e+01 4.1297260480e+04 4.0751601897e+02 6.2012224738e+02 
108 -8.9863074998e-02 1.8222280794e+01 4.1322715853e+04 4.0713187607e+02 6.2034893052e+02 
109 -8.9863074998e-02 1.8222309362e+01 4.1347099595e+04 4.0719636964e+02 6.2088903654e+02 
110 -8.9863074998e-02 1.8222369070e+01 4.1370456548e+04 4.0676820635e+02 6.2099990883e+02 
111 -8.9863074998e-02 1.8218185195e+01 4.1392835034e+04 4.0681939723e+02 6.2161506709e+02 
112 -8.9863074998e-02 1.8208972332e+01 4.1414292224e+04 4.0648531926e+02 6.2182837417e+02 
113 -8.9863074998e-02 1.8199557334e+01 4.1434857271e+04 4.0659418435e+02 6.2227593471e+02 
114 -8.9863074998e-02 1.8205493506e+01 4.1454563974e+04 4.0621422161e+02 6.2236732032e+02 
115 -8.9863074998e-02 1.8197407157e+01 4.1473440640e+04 4.0625514483e+02 6.2284386650e+02 
116 -8.9863074998e-02 1.8204647776e+01 4.1491521739e+04 4.0597499689e+02 6.2321171276e+02 
117 -8.9863074998e-02 1.8197246460e+01 4.1508842538e+04 4.0597572772e+02 6.2348718122e+02 
118 -8.9863074998e-02 1.8211420121e+01 4.1525436293e+04 4.0566231819e+02 6.2367863199e+02 
119 -8.9863074998e-02 1.8206090247e+01 4.1541333529e+04 4.0572567787e+02 6.2414041514e+02 
120 -8.9863074998e-02 1.8208748731e+01 4.1556561789e+04 4.0542715741e+02 6.2434818948e+02 
121 -8.9863074998e-02 1.8201140744e+01 4.1571148043e+04 4.0554096074e+02 6.2470730510e+02 
122 -8.9863074998e-02 1.8208878818e+01 4.1585119290e+04 4.0527718482e+02 6.2503948905e+02 
123 -8.9863074998e-02 1.8209007008e+01 4.1598500852e+04 4.0534663855e+02 6.2543189219e+02 
124 -8.9863074998e-02 1.8209046078e+01 4.1611317568e+04 4.0506661330e+02 6.2547958099e+02 
125 -8.9863074998e-02 1.8209877012e+01 4.1623592630e+04 4.0520407324e+02 6.2603034394e+02 
126 -8.9863074998e-02 1.8202338573e+01 4.1635347448e+04 4.0497175549e+02 6.2630851243e+02 
127 -8.9863074998e-02 1.8212325377e+01 4.1646601311e+04 4.0501404330e+02 6.2665750999e+02 
128 -8.9863074998e-02 1.8212187860e+01 4.1657376134e+04 4.0479354797e+02 6.2673264994e+02 
129 -8.9863074998e-02 1.8206178472e+01 4.1667692512e+04 4.0489992193e+02 6.2711241014e+02 
130 -8.9863074998e-02 1.8212173730e+01 4.1677570144e+04 4.0467570744e+02 6.2723834404e+02 
131 -8.9863074998e-02 1.8209456599e+01 4.1687027767e+04 4.0472855908e+02 6.2762832540e+02 
132 -8.9863074998e-02 1.8205546162e+01 4.1696083225e+04 4.0454534500e+02 6.2794269101e+02 
133 -8.9863074998e-02 1.8204848270e+01 4.1704753649e+04 4.0463896772e+02 6.2796715201e+02 
134 -8.9863074998e-02 1.8205785156e+01 4.1713055286e+04 4.0446900446e+02 6.2827155669e+02 
135 -8.9863074998e-02 1.8214021238e+01 4.1721003900e+04 4.0455623298e+02 6.2861473171e+02 
136 -8.9863074998e-02 1.8210557355e+01 4.1728614386e+04 4.0441775238e+02 6.2876329537e+02 
137 -8.9863074998e-02 1.8214329922e+01 4.1735901196e+04 4.0448810991e+02 6.2907744448e+02 
138 -8.9863074998e-02 1.8213718109e+01 4.1742877953e+04 4.0436521966e+02 6.2940426108e+02 
139 -8.9863074998e-02 1.8214578028e+01 4.1749556879e+04 4.0443799057e+02 6.2970676214e+02 
140 -8.9863074998e-02 1.8214531955e+01 4.1755950055e+04 4.0425033669e+02 6.2972813838e+02 
141 -8.9863074998e-02 1.8207074254e+01 4.1762070160e+04 4.0443977814e+02 6.3017521911e+02 
142 -8.9863074998e-02 1.8211515029e+01 4.1767929120e+04 4.0426056488e+02 6.3036950205e+02 
143 -8.9863074998e-02 1.8202232556e+01 4.1773538275e+04 4.0429805555e+02 6.3047078318e+02 
144 -8.9863074998e-02 1.8209403063e+01 4.1778908396e+04 4.0417970959e+02 6.3072925657e+02 
145 -8.9863074998e-02 1.8199870951e+01 4.1784049758e+04 4.0433050823e+02 6.3097458528e+02 
146 -8.9863074998e-02 1.8204564289e+01 4.1788972167e+04 4.0413959334e+02 6.3105887537e+02 
147 -8.9863074998e-02 1.8195859452e+01 4.1793685007e+04 4.0430017527e+02 6.3133389030e+02 
148 -8.9863074998e-02 1.8201585810e+01 4.1798197223e+04 4.0417787812e+02 6.3161689134e+02 
149 -8.9863074998e-02 1.8194929742e+01 4.1802517463e+04 4.0434567373e+02 6.3189540595e+02 
150 -8.9863074998e-02 1.8201069109e+01 4.1806653903e+04 4.0415352641e+02 6.3195165015e+02 
151 -8.9863074998e-02 1.8192934738e+01 4.1810614406e+04 4.0422266133e+02 6.3214596590e+02 
152 -8.9863074998e-02 1.8207551807e+01 4.1814406459e+04 4.0413985511e+02 6.3241039997e+02 
153 -8.9863074998e-02 1.8201704786e+01 4.1818037129e+04 4.0427673324e+02 6.3263452651e+02 
154 -8.9863074998e-02 1.8188846552e+01 4.1821513201e+04 4.0416158024e+02 6.3277389866e+02 
155 -8.9863074998e-02 1.8200837596e+01 4.1824841012e+04 4.0420033501e+02 6.3302442339e+02 
156 -8.9863074998e-02 1.8197505548e+01 4.1828027088e+04 4.0409118389e+02 6.3314894425e+02 
157 -8.9863074998e-02 1.8192608396e+01 4.1831077239e+04 4.0430996672e+02 6.3349475601e+02 
158 -8.9863074998e-02 1.8200793274e+01 4.1833997625e+04 4.0414298552e+02 6.3357405746e+02 
159 -8.9863074998e-02 1.8195002315e+01 4.1836793713e+04 4.0423796886e+02 6.3385854864e+02 
160 -8.9863074998e-02 1.8219542187e+01 4.1839471276e+04 4.0413512292e+02 6.3401172556e+02 
161 -8.9863074998e-02 1.8222547553e+01 4.1842035234e+04 4.0431382370e+02 6.3406706127e+02 
162 -8.9863074998e-02 1.8208865378e+01 4.1844490689e+04 4.0417510892e+02 6.3419928664e+02 
163 -8.9863074998e-02 1.8222263057e+01 4.1846842117e+04 4.0430198202e+02 6.3449426331e+02 
164 -8.9863074998e-02 1.8220905766e+01 4.1849094271e+04 4.0417480684e+02 6.3464615175e+02 
165 -8.9863074998e-02 1.8212332152e+01 4.1851251337e+04 4.0440851455e+02 6.3501527130e+02 
166 -8.9863074998e-02 1.8217166098e+01 4.1853317506e+04 4.0420748648e+02 6.3500696797e+02 
167 -8.9863074998e-02 1.8215571092e+01 4.1855296526e+04 4.0433556836e+02 6.3523605114e+02 
168 -8.9863074998e-02 1.8211625378e+01 4.1857192114e+04 4.0421914923e+02 6.3532482395e+02 
169 -8.9863074998e-02 1.8214519034e+01 4.1859007669e+04 4.0444609842e+02 6.3564771708e+02 
170 -8.9863074998e-02 1.8213663699e+01 4.1860746646e+04 4.0430499211e+02 6.3567126846e+02 
171 -8.9863074998e-02 1.8212476519e+01 4.1862412235e+04 4.0442090802e+02 6.3579181254e+02 
172 -8.9863074998e-02 1.8214313899e+01 4.1864007685e+04 4.0426181513e+02 6.3585689589e+02 
173 -8.9863074998e-02 1.8214453007e+01 4.1865535851e+04 4.0442240115e+02 6.3591820017e+02 
174 -8.9863074998e-02 1.8203027157e+01 4.1866999696e+04 4.0431306410e+02 6.3610392709e+02 
175 -8.9863074998e-02 1.8214127593e+01 4.1868401796e+04 4.0440658556e+02 6.3623485777e+02 
176 -8.9863074998e-02 1.8213740333e+01 4.1869744922e+04 4.0426525136e+02 6.3635627693e+02 
177 -8.9863074998e-02 1.8208096206e+01 4.1871031406e+04 4.0447833231e+02 6.3661261488e+02 
178 -8.9863074998e-02 1.8215072217e+01 4.1872263836e+04 4.0432602268e+02 6.3651733555e+02 
179 -8.9863074998e-02 1.8215594872e+01 4.1873444318e+04 4.0447103532e+02 6.3678363615e+02 
180 -8.9863074998e-02 1.8208263078e+01 4.1874575213e+04 4.0431509926e+02 6.3682428005e+02 
181 -8.9863074998e-02 1.8215605663e+01 4.1875658418e+04 4.0450616601e+02 6.3690369595e+02 
182 -8.9863074998e-02 1.8214263796e+01 4.1876696118e+04 4.0436806840e+02 6.3676943211e+02 
183 -8.9863074998e-02 1.8204319079e+01 4.1877690033e+04 4.0448740697e+02 6.3701410574e+02 
184 -8.9863074998e-02 1.8217566118e+01 4.1878642207e+04 4.0436277522e+02 6.3720420164e+02 
185 -8.9863074998e-02 1.8217334922e+01 4.1879554201e+04 4.0447594172e+02 6.3711960266e+02 
186 -8.9863074998e-02 1.8209594447e+01 4.1880427918e+04 4.0437988879e+02 6.3722176258e+02 
187 -8.9863074998e-02 1.8215918985e+01 4.1881264768e+04 4.0449101924e+02 6.3729378915e+02 
188 -8.9863074998e-02 1.8210768022e+01 4.1882066544e+04 4.0436760628e+02 6.3742735291e+02 
189 -8.9863074998e-02 1.8212938075e+01 4.1882834483e+04 4.0453505534e+02 6.3744007074e+02 
190 -8.9863074998e-02 1.8206772523e+01 4.1883570287e+04 4.0440791162e+02 6.3744356660e+02 
191 -8.9863074998e-02 1.8212655991e+01 4.1884275034e+04 4.0450209584e+02 6.3756433758e+02 
192 -8.9863074998e-02 1.8210912635e+01 4.1884950356e+04 4.0438611303e+02 6.3755496905e+02 
193 -8.9863074998e-02 1.8210615361e+01 4.1885597142e+04 4.0457684225e+02 6.3775397604e+02 
194 -8.9863074998e-02 1.8210867080e+01 4.1886217057e+04 4.0440923830e+02 6.3769764187e+02 
195 -8.9863074998e-02 1.8211364080e+01 4.1886810803e+04 4.0450141858e+02 6.3779423072e+02 
196 -8.9863074998e-02 1.8212227961e+01 4.1887380032e+04 4.0441113858e+02 6.3787016714e+02 
197 -8.9863074998e-02 1.8213452382e+01 4.1887925174e+04 4.0457341462e+02 6.3777703866e+02 
198 -8.9863074998e-02 1.8213757330e+01 4.1888447814e+04 4.0446821755e+02 6.3787857490e+02 
199 -8.9863074998e-02 1.8206308619e+01 4.1888948249e+04 4.0453317752e+02 6.3790076545e+02 
200 -8.9863074998e-02 1.8215213689e+01 4.1889428023e+04 4.0441028043e+02 6.3796441758e+02 
201 -8.9863074998e-02 1.8214882543e+01 4.1889887413e+04 4.0459531597e+02 6.3804602088e+02 
202 -8.9863074998e-02 1.8211902570e+01 4.1890327915e+04 4.0447241460e+02 6.3801784412e+02 
203 -8.9863074998e-02 1.8214716173e+01 4.1890749719e+04 4.0458502145e+02 6.3806716595e+02 
204 -8.9863074998e-02 1.8214270931e+01 4.1891154256e+04 4.0443276977e+02 6.3795976358e+02 
205 -8.9863074998e-02 1.8214811420e+01 4.1891541628e+04 4.0460901585e+02 6.3812970565e+02 
206 -8.9863074998e-02 1.8208576146e+01 4.1891913175e+04 4.0450745065e+02 6.3809170126e+02 
207 -8.9863074998e-02 1.8214651928e+01 4.1892268941e+04 4.0462989431e+02 6.3821566206e+02 
208 -8.9863074998e-02 1.8213161820e+01 4.1892610207e+04 4.0447428654e+02 6.3824392026e+02 
209 -8.9863074998e-02 1.8212565985e+01 4.1892936967e+04 4.0462538084e+02 6.3819298378e+02 
210 -8.9863074998e-02 1.8212506081e+01 4.1893250459e+04 4.0449267557e+02 6.3824970850e+02 
211 -8.9863074998e-02 1.8212053562e+01 4.1893550620e+04 4.0460229209e+02 6.3836182672e+02 
212 -8.9863074998e-02 1.8211745704e+01 4.1893838639e+04 4.0446673846e+02 6.3824012337e+02 
213 -8.9863074998e-02 1.8213105697e+01 4.1894114402e+04 4.0469553485e+02 6.3842090706e+02 
214 -8.9863074998e-02 1.8214746182e+01 4.1894379042e+04 4.0454568610e+02 6.3835690306e+02 
215 -8.9863074998e-02 1.8216710919e+01 4.1894632404e+04 4.0464217176e+02 6.3847193423e+02 
216 -8.9863074998e-02 1.8216596387e+01 4.1894875583e+04 4.0454026396e+02 6.3844144375e+02 
217 -8.9863074998e-02 1.8215766486e+01 4.1895108383e+04 4.0467877439e+02 6.3857254512e+02 
218 -8.9863074998e-02 1.8215523022e+01 4.1895331859e+04 4.0452451982e+02 6.3834999012e+02 
219 -8.9863074998e-02 1.8213009942e+01 4.1895545776e+04 4.0464342617e+02 6.3855296791e+02 
220 -8.9863074998e-02 1.8198808642e+01 4.1895751154e+04 4.0451934124e+02 6.3857472254e+02 
221 -8.9863074998e-02 1.8217810866e+01 4.1895947722e+04 4.0460348125e+02 6.3847776572e+02 
222 -8.9863074998e-02 1.8217517931e+01 4.1896136459e+04 4.0450719953e+02 6.3852172396e+02 
223 -8.9863074998e-02 1.8212549651e+01 4.1896317061e+04 4.0461871675e+02 6.3855773986e+02 
224 -8.9863074998e-02 1.8218190266e+01 4.1896490481e+04 4.0452807372e+02 6.3858250019e+02 
225 -8.9863074998e-02 1.8213433631e+01 4.1896656385e+04 4.0472570786e+02 6.3871357152e+02 
226 -8.9863074998e-02 1.8204077627e+01 4.1896815692e+04 4.0459773456e+02 6.3874739466e+02 
227 -8.9863074998e-02 1.8218156337e+01 4.1896968043e+04 4.0467654071e+02 6.3882222713e+02 
228 -8.9863074998e-02 1.8214638328e+01 4.1897114335e+04 4.0453271788e+02 6.3869428788e+02 
229 -8.9863074998e-02 1.8215292613e+01 4.1897254187e+04 4.0471366238e+02 6.3887373710e+02 
230 -8.9863074998e-02 1.8205002406e+01 4.1897388471e+04 4.0458408531e+02 6.3877547056e+02 
231 -8.9863074998e-02 1.8215271388e+01 4.1897516789e+04 4.0469625740e+02 6.3884334994e+02 
232 -8.9863074998e-02 1.8214526036e+01 4.1897640001e+04 4.0452938922e+02 6.3877339103e+02 
233 -8.9863074998e-02 1.8210528541e+01 4.1897757695e+04 4.0468493735e+02 6.3865297924e+02 
234 -8.9863074998e-02 1.8214188037e+01 4.1897870718e+04 4.0452112658e+02 6.3866179527e+02 
235 -8.9863074998e-02 1.8213681652e+01 4.1897978645e+04 4.0467104944e+02 6.3882271899e+02 
236 -8.9863074998e-02 1.8214164397e+01 4.1898082314e+04 4.0457109760e+02 6.3878030572e+02 
237 -8.9863074998e-02 1.8216560776e+01 4.1898181288e+04 4.0476473806e+02 6.3890855098e+02 
238 -8.9863074998e-02 1.8217384648e+01 4.1898276389e+04 4.0458970212e+02 6.3880910570e+02 
239 -8.9863074998e-02 1.8214550652e+01 4.1898367168e+04 4.0473825720e+02 6.3900867378e+02 
240 -8.9863074998e-02 1.8216956120e+01 4.1898454435e+04 4.0460402830e+02 6.3895463266e+02 
241 -8.9863074998e-02 1.8216406062e+01 4.1898537723e+04 4.0473548196e+02 6.3892422815e+02 
242 -8.9863074998e-02 1.8210405013e+01 4.1898617824e+04 4.0459802749e+02 6.3886658502e+02 
243 -8.9863074998e-02 1.8216518203e+01 4.1898694254e+04 4.0469844298e+02 6.3890309740e+02 
244 -8.9863074998e-02 1.8215289868e+01 4.1898767793e+04 4.0457638960e+02 6.3891622068e+02 
245 -8.9863074998e-02 1.8200324133e+01 4.1898837944e+04 4.0474217453e+02 6.3903261767e+02 
246 -8.9863074998e-02 1.8209671894e+01 4.1898905468e+04 4.0460439977e+02 6.3892684732e+02 
247 -8.9863074998e-02 1.8205680245e+01 4.1898969855e+04 4.0473438794e+02 6.3905443136e+02 
248 -8.9863074998e-02 1.8206945556e+01 4.1899031858e+04 4.0459345304e+02 6.3886798308e+02 
249 -8.9863074998e-02 1.8210551756e+01 4.1899090953e+04 4.0477807305e+02 6.3902671160e+02 
250 -8.9863074998e-02 1.8217868050e+01 4.1899147874e+04 4.0463385803e+02 6.3903670505e+02 
251 -8.9863074998e-02 1.8215271895e+01 4.1899202087e+04 4.0471315824e+02 6.3888235923e+02 
252 -8.9863074998e-02 1.8217709867e+01 4.1899254319e+04 4.0458542014e+02 6.3893586899e+02 
253 -8.9863074998e-02 1.8217287388e+01 4.1899304030e+04 4.0471616465e+02 6.3900872053e+02 
254 -8.9863074998e-02 1.8217029621e+01 4.1899351933e+04 4.0460848572e+02 6.3909522944e+02 
255 -8.9863074998e-02 1.8218593185e+01 4.1899397483e+04 4.0476779775e+02 6.3902665329e+02 
256 -8.9863074998e-02 1.8218950887e+01 4.1899441389e+04 4.0462906137e+02 6.3899758451e+02 
257 -8.9863074998e-02 1.8215621979e+01 4.1899483104e+04 4.0475589697e+02 6.3906048056e+02 
258 -8.9863074998e-02 1.8217448854e+01 4.1899523323e+04 4.0457910993e+02 6.3892139178e+02 
259 -8.9863074998e-02 1.8216655385e+01 4.1899561499e+04 4.0469857284e+02 6.3907946556e+02 
260 -8.9863074998e-02 1.8205061765e+01 4.1899598323e+04 4.0457835438e+02 6.3900573666e+02 
261 -8.9863074998e-02 1.8218606412e+01 4.1899633260e+04 4.0473767201e+02 6.3909366458e+02 
262 -8.9863074998e-02 1.8218944664e+01 4.1899666987e+04 4.0460877587e+02 6.3902549132e+02 
263 -8.9863074998e-02 1.8219942548e+01 4.1899698984e+04 4.0472875798e+02 6.3912804159e+02 
264 -8.9863074998e-02 1.8221893828e+01 4.1899729922e+04 4.0461872576e+02 6.3909992819e+02 
265 -8.9863074998e-02 1.8213470339e+01 4.1899759281e+04 4.0474273688e+02 6.3891240104e+02 
266 -8.9863074998e-02 1.8220187224e+01 4.1899787706e+04 4.0463227195e+02 6.3901706426e+02 
267 -8.9863074998e-02 1.8212775967e+01 4.1899814679e+04 4.0474309451e+02 6.3907856856e+02 
268 -8.9863074998e-02 1.8209366561e+01 4.1899840825e+04 4.0463488754e+02 6.3911328069e+02 
269 -8.9863074998e-02 1.8211053516e+01 4.1899865635e+04 4.0480634890e+02 6.3918151448e+02 
270 -8.9863074998e-02 1.8213686665e+01 4.1899889706e+04 4.0464058233e+02 6.3913172642e+02 
271 -8.9863074998e-02 1.8210457032e+01 4.1899912567e+04 4.0474130667e+02 6.3911311008e+02 
272 -8.9863074998e-02 1.8208648153e+01 4.1899934789e+04 4.0462287568e+02 6.3894397545e+02 
273 -8.9863074998e-02 1.8206999258e+01 4.1899955919e+04 4.0482375813e+02 6.3915131999e+02 
274 -8.9863074998e-02 1.8206570996e+01 4.1899976494e+04 4.0464984534e+02 6.3910477116e+02 
275 -8.9863074998e-02 1.8206498154e+01 4.1899996069e+04 4.0475178547e+02 6.3920212573e+02 
276 -8.9863074998e-02 1.8206216068e+01 4.1900015154e+04 4.0466232352e+02 6.3920747255e+02 
277 -8.9863074998e-02 1.8207249274e+01 4.1900033322e+04 4.0478336341e+02 6.3909506348e+02 
278 -8.9863074998e-02 1.8209164039e+01 4.1900051056e+04 4.0466766619e+02 6.3914943140e+02 
279 -8.9863074998e-02 1.8208961193e+01 4.1900067940e+04 4.0475648580e+02 6.3921306171e+02 
280 -8.9863074998e-02 1.8191248637e+01 4.1900084455e+04 4.0461817507e+02 6.3910048855e+02 
281 -8.9863074998e-02 1.8200927049e+01 4.1900100182e+04 4.0481278068e+02 6.3930190409e+02 
282 -8.9863074998e-02 1.8197219971e+01 4.1900115586e+04 4.0463919768e+02 6.3916404351e+02 
283 -8.9863074998e-02 1.8192025642e+01 4.1900130245e+04 4.0475982583e+02 6.3925999586e+02 
284 -8.9863074998e-02 1.8200267651e+01 4.1900144616e+04 4.0462947524e+02 6.3914891737e+02 
285 -8.9863074998e-02 1.8196551840e+01 4.1900158276e+04 4.0479586566e+02 6.3919928951e+02 
286 -8.9863074998e-02 1.8215325788e+01 4.1900171671e+04 4.0467332062e+02 6.3905153528e+02 
287 -8.9863074998e-02 1.8214531147e+01 4.1900184375e+04 4.0475260071e+02 6.3918109951e+02 
288 -8.9863074998e-02 1.8214329208e+01 4.1900196833e+04 4.0464719439e+02 6.3923661401e+02 
289 -8.9863074998e-02 1.8213877725e+01 4.1900208620e+04 4.0478696177e+02 6.3911252053e+02 
290 -8.9863074998e-02 1.8213951861e+01 4.1900220172e+04 4.0461991501e+02 6.3912575223e+02 
291 -8.9863074998e-02 1.8212808985e+01 4.1900231068e+04 4.0473263931e+02 6.3919663698e+02 
292 -8.9863074998e-02 1.8212248006e+01 4.1900241744e+04 4.0462796171e+02 6.3918469361e+02 
293 -8.9863074998e-02 1.8210898677e+01 4.1900251784e+04 4.0477127266e+02 6.3918475871e+02 
294 -8.9863074998e-02 1.8210262856e+01 4.1900261621e+04 4.0466006744e+02 6.3911847357e+02 
295 -8.9863074998e-02 1.8209513779e+01 4.1900270841e+04 4.0479030076e+02 6.3919539484e+02 
296 -8.9863074998e-02 1.8209719032e+01 4.1900279883e+04 4.0462918451e+02 6.3903671185e+02 
297 -8.9863074998e-02 1.8209220513e+01 4.1900288335e+04 4.0479597546e+02 6.3918118583e+02 
298 -8.9863074998e-02 1.8205470709e+01 4.1900296634e+04 4.0462751486e+02 6.3905411111e+02 
299 -8.9863074998e-02 1.8210387009e+01 4.1900304373e+04 4.0472537042e+02 6.3917591383e+02 
300 -8.9863074998e-02 1.8210240275e+01 4.1900311989e+04 4.0463169876e+02 6.3918760448e+02 
301 -8.9863074998e-02 1.8207875157e+01 4.1900319080e+04 4.0476762559e+02 6.3913876931e+02 
302 -8.9863074998e-02 1.8210199380e+01 4.1900326082e+04 4.0462282375e+02 6.3917638778e+02 
303 -8.9863074998e-02 1.8209371074e+01 4.1900332594e+04 4.0474689495e+02 6.3915186794e+02 
304 -8.9863074998e-02 1.8209014737e+01 4.1900339056e+04 4.0462986589e+02 6.3905884346e+02 
305 -8.9863074998e-02 1.8208946779e+01 4.1900345070e+04 4.0479842117e+02 6.3923424345e+02 
306 -8.9863074998e-02 1.8208296717e+01 4.1900351072e+04 4.0465157142e+02 6.3907505389e+02 
307 -8.9863074998e-02 1.8207742109e+01 4.1900356665e+04 4.0476576472e+02 6.3924502089e+02 
308 -8.9863074998e-02 1.8208230737e+01 4.1900362285e+04 4.0463332817e+02 6.3914944904e+02 
309 -8.9863074998e-02 1.8208845908e+01 4.1900367535e+04 4.0478603146e+02 6.3916918347e+02 
310 -8.9863074998e-02 1.8208892244e+01 4.1900372842e+04 4.0464257476e+02 6.3906930665e+02 
311 -8.9863074998e-02 1.8208837792e+01 4.1900377807e+04 4.0473351090e+02 6.3921117855e+02 
312 -8.9863074998e-02 1.8208871396e+01 4.1900382855e+04 4.0463675940e+02 6.3918555218e+02 
313 -8.9863074998e-02 1.8206192206e+01 4.1900387584e+04 4.0476037478e+02 6.3911118659e+02 
314 -8.9863074998e-02 1.8208998728e+01 4.1900392408e+04 4.0466906654e+02 6.3913251838e+02 
315 -8.9863074998e-02 1.8208910208e+01 4.1900396921e+04 4.0475238980e+02 6.3911772856e+02 
316 -8.9863074998e-02 1.8208686058e+01 4.1900401535e+04 4.0459097106e+02 6.3907054415e+02 
317 -8.9863074998e-02 1.8208696976e+01 4.1900405839e+04 4.0478455945e+02 6.3910170477e+02 
318 -8.9863074998e-02 1.8208344118e+01 4.1900410234e+04 4.0465636967e+02 6.3910976195e+02 
319 -8.9863074998e-02 1.8209034113e+01 4.1900414307e+04 4.0475669569e+02 6.3921020205e+02 
320 -8.9863074998e-02 1.8210698045e+01 4.1900418460e+04 4.0465297442e+02 6.3907555967e+02 
321 -8.9863074998e-02 1.8212942737e+01 4.1900422274e+04 4.0482504719e+02 6.3925207026e+02 
322 -8.9863074998e-02 1.8204126605e+01 4.1900426146e+04 4.0467289577e+02 6.3922204746e+02 
323 -8.9863074998e-02 1.8215526740e+01 4.1900429658e+04 4.0474560954e+02 6.3927797508e+02 
324 -8.9863074998e-02 1.8210659924e+01 4.1900433210e+04 4.0465721705e+02 6.3926005684e+02 
325 -8.9863074998e-02 1.8214879114e+01 4.1900436387e+04 4.0479412184e+02 6.3916465009e+02 
326 -8.9863074998e-02 1.8203760622e+01 4.1900439590e+04 4.0468272595e+02 6.3920465665e+02 
327 -8.9863074998e-02 1.8220291866e+01 4.1900442408e+04 4.0479375596e+02 6.3921117293e+02 
328 -8.9863074998e-02 1.8220438642e+01 4.1900445248e+04 4.0462843190e+02 6.3904736915e+02 
329 -8.9863074998e-02 1.8206810286e+01 4.1900447708e+04 4.0481521072e+02 6.3928363905e+02 